LAMMPS (28 Mar 2023 - Development)
OMP_NUM_THREADS environment is not set. Defaulting to 1 thread. (src/comm.cpp:98)
  using 1 OpenMP thread(s) per MPI task
# Demonstrate SNAP InP potential

log log5.lammps
