63
Lattice="14.22366 5.591921 15.557314 0.0 9.055935 0.272179 0.0 0.0 9.178194" Properties=species:S:1:pos:R:3:forces:R:3 energy=-295.49753016 stress="-6.58094686 -9.63365488 -2.75897261 9.08682588 -1.60618898 -5.41948494 -9.63365488 -2.75897261 -1.60618898" pbc="T T T"
Si  0.29508405036  9.033552194395998  4.748539369736  -2.98187262  0.6069187  3.48143607
Si  12.92021802126  7.322855393421  21.491735932172002  1.02961593  -0.13696487  -0.28212521
Si  10.36532154108  11.773396053913  17.533802602858998  1.291237  2.50367684  0.18027279
Si  13.29247965078  9.745171901837999  21.123784877427  -0.50029697  -0.68283674  -2.67411757
Si  1.3203396868200001  2.614443490967  8.650531488479999  -1.24770628  0.54526764  0.45055166
Si  7.474405317060001  6.404572720111  10.060596034826  0.2586643  -1.208417  1.41784669
Si  4.46809253946  7.997755963015999  12.860724436613001  1.01186331  -0.97490254  1.38438155
Si  6.3176377202400005  8.206320220504  9.444331721344  -1.1932141  1.55031482  -0.29724222
Si  9.26475162492  10.051684730782  15.56733087923  0.97073269  0.93589369  0.00586275
Si  9.14949730794  12.369157395769001  15.493514780048002  -0.19438338  0.74741519  0.38356837
Si  10.84933846722  6.822067766151999  13.266449160695  0.80306051  -0.49752069  1.79911729
Si  10.995443902740002  9.819761786659  13.3680575713  -0.20877409  0.21183732  0.00160493
Si  4.30419330528  6.445701814883  7.701209552337  0.11246361  0.11640061  0.02147237
Si  14.029051883880001  7.9365527828680005  18.819372391556  -1.01784245  -0.0391863  -0.19704588
Si  13.8641569935  12.699281584385  16.361856284716  -0.11236379  -0.00469982  -0.5763679
Si  11.678904989400001  10.201667426065  16.468346894173  0.98277019  -1.71292947  0.58267823
Si  10.623537864720001  9.797824424277  19.900554603434998  -0.02592928  -0.60446721  0.72929798
Si  7.2884167389  7.98257610999  12.564807793731  0.12309702  0.12520565  0.12171308
Si  12.71507017308  8.108484803003  14.906926432291  0.06978948  -0.11812041  -0.04318403
Si  3.49293263352  8.779307761772  10.049876503658  1.15896022  2.46350168  -0.65856102
Si  8.85627655704  10.387940761344  18.224189678477998  -0.21523972  -2.27564512  -0.54804569
Si  7.80284385012  10.655278184797  12.876251662935001  0.55480388  -1.38851051  -0.21510671
Si  6.74481690102  4.9486738514469994  13.341477816855999  0.16301783  0.92802634  0.41519423
Si  9.712811138580001  5.421932633118  18.430234615653  3.40640289  0.75013542  1.37223979
Si  7.974921688799999  4.697888906465  17.508390821623  -2.46951666  -1.27128002  -1.82875726
Si  3.9064144297200003  5.756765782652  12.406547206088  0.77515538  -0.42418828  0.05829842
Si  4.155968544419999  10.136014972236998  12.25627728598  -0.38288402  0.80084692  -1.65096026
Si  2.7684220641  8.0610822005  5.920148666983  0.15547306  1.03537039  0.40436972
Si  13.866831041580001  10.261551458163002  23.172751058444  0.64537139  0.75504105  2.27144577
Si  12.73653367602  5.249515144937  22.947575622857997  0.8122793  -0.75640986  0.00592284
Si  8.8609845885  7.509370441745  17.60879820435  0.43873918  1.09364896  0.07374309
Si  2.38788226446  5.993003284121  5.041243460587999  -0.72078846  -1.95767078  0.18560572
Si  2.98514797152  1.2727229645570002  7.377744074700999  -0.95478533  -1.58579621  -1.21929822
Si  7.3519253808  10.703387215535  10.589974663865002  -2.27851165  0.5208657  0.65477905
Si  5.45047806468  4.297219879858  8.51863993136  -0.1824737  0.15047487  -0.79077671
Si  11.940421202160001  11.786230682141  14.876398557311  0.5567055  1.03287679  -1.35382302
Si  9.39538171836  11.982654578105999  11.841518476713999  0.49422893  -0.6552154  -0.45555184
Si  5.93371268952  7.159171537532  15.065571495042  -1.03156008  -0.96127684  -1.2571219
Si  6.54924157602  3.630234361067  15.481334297305999  0.45951877  1.02520437  0.45241934
Si  8.66653293264  7.979892707818999  15.289912577696999  0.40851083  -3.08146549  -1.39598478
Si  5.05952654592  3.2568990230769996  13.115189962930998  -0.06740214  0.57674294  -0.40837277
Si  0.9784882423800001  8.762819510343  8.55985544264  0.14704764  -0.28500871  0.09342045
Si  6.42590822016  10.658280821451001  14.632154243269  1.35703739  -0.52225135  1.41066265
Si  4.98675830136  10.477965183881  8.687053970869  1.27441627  -0.00049754  0.67858435
Si  10.0873485537  5.864013172685  15.319625408276  0.07520009  0.66578437  0.6672163
Si  13.657273858800002  12.776072774475  18.732635139853002  -0.12813795  0.1032186  0.79860542
Si  9.31683866784  4.653127065224  13.28472127098  -0.71131864  0.09110553  -0.40497972
Si  3.63134306898  3.662041273353  11.24499595739  -0.19249397  -0.29453928  -0.56467361
Si  4.2655191737400004  10.333723093839  5.4565159731440005  -2.32345804  -0.4455237  0.55078323
Si  1.57141573314  3.333619466984  5.741920315134999  0.27290009  0.49336199  0.0177413
Si  13.890541882800001  12.475875635815001  21.591900877571  -0.10562167  0.26118816  -0.02914504
Si  0.18337142472  4.577799057301999  1.118554909322  -0.79216322  -0.73486524  -0.72728207
Si  6.814356374760001  8.883630593846  16.265595894278  -0.90054849  1.1319958  1.50736583
Si  2.11478799246  2.182530740396  3.541609764323  0.40954699  0.58737487  0.16213793
Si  3.32923253058  3.530020038408  7.7011867493490005  -0.41977153  0.98809896  -0.00961759
Si  6.519130087800001  4.052456284795  10.641746150967  0.03683455  -0.12254046  0.20662823
Si  11.789536616880001  6.878200978343001  16.973013073419  -0.05428749  0.22362454  -0.21434472
Si  9.59209493616  7.383678074301001  11.617322781271  -1.78240466  1.40628446  -2.26412968
Si  2.63641227564  6.8517626412190005  10.575120183723  -0.5476619  -1.30953881  -0.37692125
Si  11.08324655592  4.433533863017001  20.080028663009  0.82991247  -0.06968524  -0.1288499
Si  1.42539563958  5.509723334723  2.831889228708  -0.66258876  0.08911122  1.3350698
Si  1.7521557807600001  6.243358448166  8.284724463168  0.12070386  0.21745881  0.00928666
Si  1.6198757427600001  8.778308198706  3.1990649236840003  3.19994049  -0.61231932  -3.3189373
63
Lattice="14.390374 2.309401 14.789356 0.0 9.159364 0.012167 0.0 0.0 9.045156" Properties=species:S:1:pos:R:3:forces:R:3 energy=-296.50704759 stress="-35.87389874 -24.33040267 -17.14895499 -7.67446914 -6.97504041 -4.26445751 -24.33040267 -17.14895499 -6.97504041" pbc="T T T"
Si  5.863487399666  8.096162307126999  13.024074563133  0.99880939  -0.7519403  -0.01394214
Si  10.598352156886  6.269236937277  16.300187440025  0.77368758  -0.05200631  -0.44967752
Si  5.0356523545680005  4.20572611162  12.510012778130001  -1.52370115  0.63537064  -1.11509169
Si  13.453503091103999  4.583826507744  21.300514043328  0.62811366  -1.73650834  -3.3496265
Si  4.1912395986219995  7.773490185365  11.151279153726  0.44111399  0.72455081  -0.29148582
Si  8.68941148429  7.962521368047001  13.473229419113  -0.00256322  0.11690232  0.52820297
Si  9.809040142986  5.4786497928869995  13.084612395798  0.36152029  0.00204731  0.36809136
Si  7.783983542583999  10.289062888572  15.353615962117999  -0.0339943  0.20005185  0.13450509
Si  3.44901288845  4.183105175683  5.867390107596  0.3084175  -0.45398611  0.09139763
Si  5.084565235794  5.949888921007  6.2001893498389995  0.14510759  0.2475443  0.42871339
Si  0.9423248606419999  9.048944113659001  5.077002891946  1.04055773  0.08046709  -0.72384959
Si  2.697936098268  5.751896227357999  4.133411123395  0.09599616  0.28465133  0.40814966
Si  13.731064624816  9.078584624091999  20.811257556475002  -1.40226831  -0.03191561  -0.77954426
Si  0.842613959196  3.823205943298  4.436801065922  1.37154573  -1.88928441  3.29818007
Si  3.049910255934  0.7690371840769998  10.220871766840002  -0.68275446  -0.51416117  0.86608107
Si  4.214882983103999  2.375641205848  9.033791108834002  0.53570377  0.74159274  -0.64749156
Si  7.179170513738  5.844728776079  13.919196254996  0.05518519  0.45285546  -0.13043212
Si  10.686334903521999  4.809092863643  18.10894941843  -0.38748648  -0.76224202  -0.13521706
Si  4.237490260657999  1.5877261973030001  12.751589294681  0.29678527  0.57181207  -0.1570695
Si  6.290795165222  3.3885873026209996  6.861600675490999  -0.0808541  -0.27684326  0.73248548
Si  11.236809880144  4.653282373312  20.35901358979  -0.24484196  -0.5616445  0.89346158
Si  7.152677835204  9.73964590173  11.859672919065  -0.58747941  -0.77706964  0.67630156
Si  11.979439520788  8.17803192825  17.577636723329  -0.34492417  -1.06301045  -0.25812344
Si  4.15219851396  7.916833832028  7.4016916718640005  -0.42982392  0.17699662  -0.22606062
Si  1.502513339714  7.377755240779001  7.521573080922001  1.71645373  -0.22671624  0.52230282
Si  1.682867897056  1.4261013990759999  3.2611497157510003  -0.03788808  0.54456863  -0.12481753
Si  0.6862913264339999  5.101542214255  6.789498454084999  -1.91326479  -0.27130258  -1.38596501
Si  2.91102875646  4.868499592482  10.965427149192001  0.33034678  -1.42322243  0.08976303
Si  9.234245434304  8.16095077226  16.235902603895003  -0.43059537  0.93426928  -0.69741723
Si  13.174085199146  7.807210812279001  14.263762988842  -0.06067755  -0.08931176  -0.43741559
Si  11.103080134562  7.941474856943  12.681254153176997  -0.23921098  0.3955278  -0.07960535
Si  8.342790545752  10.197587647012  9.846553900492001  0.57291132  0.00264303  -0.72031404
Si  0.381244178382  4.839916259141  2.6480815606599997  0.15832191  -0.95131061  -2.31056456
Si  14.185699710598  9.123975844244999  16.827357880625  -0.45978438  2.38768411  -1.24266664
Si  8.402726453462  7.164886912121  9.348900484922002  -1.45901385  0.94842529  0.10528263
Si  0.349139253988  1.262053304306  8.887407544557002  -0.16161408  -0.24176651  -0.07670244
Si  12.20440423753  10.269697581691  18.456588387667  -0.33024007  0.86508258  1.18057702
Si  1.484036099498  3.284593541419  9.406085212485  -0.07456004  -1.14404395  1.89604122
Si  8.57565557782  4.385678611226  10.299250286124  -0.72617539  0.19664212  -0.04084013
Si  6.463896974068001  2.719128821478  10.416715287374  -0.87080579  0.18415402  -0.66680536
Si  10.424286192981999  7.509718627592999  19.408099565306  1.423922  0.1169024  0.41545216
Si  10.621578220521998  10.346426580939  16.107274257713  1.22371418  -2.91073254  -1.3552696
Si  2.369634105832  4.7886313808839995  8.101367802870001  3.01806387  1.05604239  -0.20587738
Si  1.284470392866  2.063809552247  6.358359998239001  1.61958071  -0.23743162  -0.20935575
Si  9.550660977816001  2.6285479616079996  17.227764698003  -1.87648666  1.74599263  1.89880467
Si  13.096880842635999  5.20880268161  16.70471711313  -0.0817438  -0.38745965  -1.28948022
Si  12.880233762066  5.794270142179  18.879582244442002  -0.18834153  0.80128671  1.27598803
Si  2.425958029668  6.825599362818  9.889897598505  -0.71137368  0.7168729  -1.02349982
Si  3.667847305868  8.557243947589999  4.511761422863  -1.29457091  -0.53435674  0.70794553
Si  7.660298278054  5.589154116901  16.832167588969  -0.61997433  -0.87321404  -0.72003732
Si  5.38861944804  5.241204851936  9.037020726127  0.10534432  -0.16413153  -0.28163761
Si  8.295086455942  2.6743166055009997  12.057407495227  1.32037478  0.11728976  0.53492742
Si  12.573819528484  5.394136716298  13.923588998395001  -2.10158451  2.01141257  3.8336095
Si  4.41834848109  1.4455530765469997  6.62831055874  0.10716431  0.34996394  0.26386243
Si  14.093529365128  11.122558887863999  21.829656002945  -0.71928203  1.20754545  0.98304117
Si  6.535230057986  2.960137662167  13.605012444875001  0.89171494  -1.09363528  0.95977422
Si  13.858822365187999  2.583335761306  17.522503471539  0.30794801  -0.19717816  -0.182149
Si  9.986962727122  4.0875659223989995  15.397064159795  -0.21849289  0.54389289  -0.80249798
Si  6.129766880161999  8.740766431035  9.635456170881998  0.14017017  -0.24840064  0.18170568
Si  10.835260884048  2.675761126584  13.424367308159999  -0.07284397  0.06359515  -0.21021294
Si  6.674730343542  5.663241854161001  11.295991636387999  -0.33687907  0.29155903  -0.22788315
Si  12.247244380928  2.898613372828  15.631831796984999  0.54518724  0.53860329  -0.53033475
Si  10.541769206318  10.527522378873  11.357703039991002  0.17233313  -0.38997207  -0.17568614
63
Lattice="13.125139 0.474114 0.157109 0.0 9.289503 -0.615291 0.0 0.0 9.236327" Properties=species:S:1:pos:R:3:forces:R:3 energy=-301.08013543 stress="12.07313891 29.93509876 4.67132516 -8.58672133 1.56241509 -5.89693458 29.93509876 4.67132516 1.56241509" pbc="T T T"
Si  7.032803854953001  4.17248550072  2.9069642237279996  -2.18603536  -1.21455866  -0.02436766
Si  6.135753104859  5.168058107256  0.19546188350899996  -0.3924486  2.73295998  -0.69663568
Si  4.782643149932  8.857174095321  3.9619130563149993  0.30189101  0.77206536  0.30963052
Si  5.558680118446  9.111786827358001  8.462921935013  -1.25820334  0.84900123  -0.72463768
Si  12.188844084296  3.9378462202140003  4.7238270962049995  -0.46355761  0.9788031  -0.15144521
Si  11.632955072229  5.648874243525  0.0761031380049999  1.13653514  -0.46520653  0.37980955
Si  12.402403220965  9.320857124034  2.580340792995  -0.30881898  0.41104603  0.47759183
Si  12.00057709048  9.231970362905999  7.937859088478  -1.77833307  -0.31335685  0.05358065
Si  3.01326941162  8.946471508187999  7.794002550974999  0.35065616  -0.28563584  1.14935664
Si  2.658405028477  1.7628068371799999  6.554277924749999  1.48380521  -2.38053977  -0.78606197
Si  3.0744456844990005  5.475336181842  0.8298688981369999  -0.35299692  0.17609037  0.30336875
Si  2.6930028948810003  4.180451411547  4.125119392404  0.00394457  -1.06941979  -0.93925493
Si  9.23471654901  9.498930661665  -0.306295923583  0.09173074  -0.45265384  -1.56703502
Si  9.729271786530001  1.177199695953  3.418718640626  1.81444277  0.19015799  0.95004277
Si  9.640217718415002  6.3063867924479995  0.9704117409849998  -0.8090814  0.55541518  0.94734131
Si  9.847096159333  5.031109466058  5.020891228286  1.16955695  0.04181315  2.20671265
Si  4.4183680421260005  1.509729968793  1.0726437255599999  0.63437913  -0.51360836  0.14940869
Si  5.136536272789001  2.133804583695  5.5066758091259995  -0.43185663  -1.21131644  0.21604771
Si  4.525915431092001  6.495157290174  2.4701368818769995  -0.86419844  -1.25223565  0.88415527
Si  4.560421421523  4.512686107248  5.422263308519  -0.3733007  -2.04276317  1.43529916
Si  10.74725756737  1.9935563590559997  0.303127943959  1.21785462  0.71405441  -0.09986827
Si  10.264803708008001  1.226159430945  6.518380704287  0.32592599  0.02731819  0.33650755
Si  11.690968186609002  6.989596499208  2.5888061047839996  0.01060723  -0.37136789  -0.56425773
Si  11.402779509586  6.77583915744  6.0453975478189985  -1.4485175  1.78554751  -1.49801056
Si  4.654922422323001  3.138670802214  2.6704125484909995  0.04692889  0.71174864  0.81515019
Si  4.237621752957001  4.3086772984140005  8.392398384689  -0.34910599  -0.77924066  -1.05410666
Si  2.928835392433  8.748871471496999  2.46383575222  -0.28616943  -0.68010818  -0.65327651
Si  3.5505732268630004  6.389594577507  6.206391220718  -0.91051627  1.32028329  1.06261555
Si  10.873088274963001  3.2637314472030003  2.40707136611  -1.44567311  -0.77767933  0.25834643
Si  10.124771600017  3.925860670668  7.664352908482999  0.57505221  -0.18640942  -0.11944212
Si  8.607216778559  8.012683968783  6.8549731290530005  -0.25009504  2.59983855  -0.42344354
Si  1.6814878075680002  3.5798728247550002  1.2238682110699999  1.26300018  -1.00184821  -0.50802135
Si  1.6709351958120002  3.620672003898  6.088493985142  -2.20978457  2.08631697  -0.05103544
Si  1.1364139100369999  9.124586351946  0.35336683007399994  2.09883874  -0.91992559  -0.0574681
Si  2.483683178109  8.575306476714001  5.548117257977999  0.06164399  -0.29790899  -0.98887139
Si  9.082806190224  4.920666835473  2.9780328888939995  1.65720814  0.5993247  -2.89007129
Si  8.003486634837  3.6450418005449996  6.115413069342  0.35730297  0.57111743  0.1123123
Si  8.660964222764001  8.556630807651  1.6733646258999997  0.2056638  -3.37998101  1.05816501
Si  8.529030325536  9.243329169528002  4.762245667785999  -0.17848453  1.03776019  0.18002396
Si  12.902444766587001  1.972334750703  1.67611294667  -0.26462355  0.5815549  0.12826419
Si  0.499030909919  0.25855010006999996  7.099741980275  0.51138694  1.30344924  -1.25130845
Si  12.833249033779001  4.458520943904  2.3137481950929994  -1.12847225  1.53357576  0.84705307
Si  12.677716136629  5.381239885806  7.1155593192829985  2.01672512  -2.01223689  0.95430184
Si  5.913977631176  8.131851907728  1.8903124276449996  0.07310621  2.4024739  2.14787757
Si  6.629035203896  0.658646736171  7.022157953558  0.08280477  0.43363569  0.00914432
Si  6.057619152392  5.790549311556  4.491919705143  1.83756544  1.31329465  -1.59465292
Si  6.845783749342  5.9629978642529995  7.1796535166730004  0.13346456  -1.15096832  -0.33695553
Si  2.163928541791  1.621803414576  3.363849561651999  -0.83273981  1.46615666  0.13493472
Si  2.7749693879360002  2.117120232678  8.779913389846  -0.11758435  0.96580652  1.03818964
Si  2.0981715954010003  6.076206510231  3.0141304084609994  0.14565054  0.77566554  -0.50720187
Si  1.889455635023  5.868236832675  8.039642015830998  -0.17497831  0.27647786  -0.6483537
Si  7.840774286654  1.3022875451040001  2.1374676114559996  -2.10776187  2.23493477  -0.6777477
Si  8.608516167320001  2.151091671081  8.252294331102998  -1.33075822  0.1664641  -0.61046359
Si  8.270045082788  7.0732820017949996  3.964208596696  -0.55379819  -0.28171193  -0.3322348
Si  9.141934941419  6.183174617573999  7.808228413117999  1.07211566  -2.27476052  1.34757312
Si  12.843053512612002  3.147076519923  8.307808631040999  -0.35308426  -0.21371058  0.1524347
Si  0.125423828284  1.480270369467  4.960450659686  0.39164793  -1.11924979  -0.09934087
Si  13.096237443922  7.637924322327  0.06566291510599997  -0.21310531  -0.76646095  0.20825462
Si  0.350126207964  7.240298826699  4.016353867529  -0.5446219  0.44167035  0.50465928
Si  6.507299539671  3.137184848673  0.581128945774  1.19177401  -3.48697029  0.80230993
Si  7.204664425019001  2.169011759919  4.378186021826999  0.41101426  -0.13003574  -0.43780368
Si  6.757884693459001  7.403699463588  0.03424463957499996  2.08245076  -0.83661548  -1.08107871
Si  5.704080408288  7.722749688471  6.046856671787999  -0.83796911  -0.18733754  -0.18601056
63
Lattice="14.457355 -2.049613 13.272033 0.0 9.135233 -0.061609 0.0 0.0 8.85437" Properties=species:S:1:pos:R:3:forces:R:3 energy=-294.09278806 stress="23.10693123 23.61150193 -2.06549475 8.11865819 12.37849685 7.67093171 23.61150193 -2.06549475 12.37849685" pbc="T T T"
Si  6.81889822988  2.275089595116  14.969194356075999  -0.05824923  0.28047602  -0.5598585
Si  1.49445678635  1.4475557138729997  3.754606187951  2.23025192  -0.38058056  1.83900434
Si  3.86716897424  2.748439461964  6.76553872471  -0.44728179  1.62057273  0.96865191
Si  9.773562328585001  2.4244013588269997  10.368622581917  -0.88658649  -0.64272188  -1.62728593
Si  5.25498831011  7.7163294291239986  10.122868048586  -1.95255358  1.54739412  -1.18704963
Si  3.5218839647749998  0.853568085804  8.012497305178  -0.60876315  0.08000193  1.80599647
Si  5.68963423083  3.9447729845630004  7.981043908435001  0.44290714  -0.19277888  0.10941978
Si  14.057797079864999  -1.4035991532909997  20.258771246125  1.84968597  2.68764001  -0.2010338
Si  0.338692455585  4.681056324290999  3.623441195435  -1.48109428  -0.85456773  -2.31576168
Si  11.01962729868  6.008466903546  17.096866956146002  1.65953008  -1.2593281  -4.39435793
Si  10.982009260969999  2.4768844302629995  12.205870228517  1.31773607  -0.25288308  1.92986594
Si  6.98946610417  -0.320321824937  11.807801237557  0.31828274  0.21576873  0.19809676
Si  8.159282983995  5.074294767306999  7.752980104285  -2.45771785  -1.92087293  0.44408513
Si  11.41717564647  0.46347595421200016  19.088125819  -0.28458334  0.26691858  0.42952111
Si  3.4078877206000002  4.046396937263  4.922688808131  -0.07439086  1.02463362  1.44764268
Si  8.36392684402  -0.2828421519580001  8.57319183511  1.29679823  0.15607727  -1.34876639
Si  1.99739925209  0.1979366130909999  6.005910138719  -0.43303996  0.10319487  0.04884371
Si  3.45828606013  6.419464350194  10.954075934072  -0.00280974  -0.59119877  0.03584467
Si  3.9325162188400005  8.019449508  6.922095607922  0.3498075  -0.82527865  -0.7774982
Si  0.85986564598  4.336100056445  9.582070934569  0.27600305  0.9530752  0.19217613
Si  12.585488961374999  1.71131187446  14.06451931158  0.08942922  -0.2747633  0.23160799
Si  7.54225752995  2.6207777358849995  9.618284143795  -0.17751145  0.65603364  -0.08957361
Si  0.237172908775  5.147871121102  6.550748644103999  0.11156601  2.39003677  0.14994316
Si  0.065650849055  2.217752889971  0.215146418521  -0.58396848  -0.31117191  -1.04705435
Si  13.87226584315  0.24519399300200018  18.202569584754002  -0.31654954  -0.02548177  0.65860897
Si  1.583181573985  6.121169063231999  4.6333543172019995  1.52867433  1.69557701  1.63555001
Si  13.612047910505  5.5910621762709996  18.001488323811  1.55815256  -1.88861279  -0.57767243
Si  6.5731810243  0.18993870105300004  7.263121103771001  -1.09047136  -0.13888624  -1.01878391
Si  2.1927181181399997  3.419146281746  3.257114195974  0.56396233  0.69085355  -3.03846196
Si  4.2465010547299995  1.5062135789349997  10.805158997569  -0.24124248  0.64593727  0.12572706
Si  6.14428913087  0.7051655506630001  9.613139810467  -0.29731868  0.31928796  0.13732304
Si  2.177002973255  8.26460982592  3.2968855606639997  0.40553557  -0.8663913  0.06321396
Si  10.395459911265  6.744752488091  11.693554250709001  0.16372372  -2.68598062  -0.55194052
Si  13.0269442963  5.864627835772  20.541947296754  -1.2174951  -2.37627113  0.82285178
Si  4.86325181903  7.8384159153769986  12.921481611543001  -0.94284424  0.91964152  -0.64172671
Si  10.36349469936  4.538868394356  14.201248946059998  1.85931294  -0.02006557  -1.32104773
Si  13.020886664555  2.7365688335560003  18.308203609656  -1.11777132  -1.10806579  0.65819705
Si  9.12507767006  6.132336028331999  14.963744334582  -1.01047479  2.79368101  -0.97626706
Si  12.204581029189999  -0.656976218876  15.816797529350001  2.93587769  0.64281411  0.09032465
Si  9.07783103392  -0.9138133388010001  10.584040512508999  -0.50766947  0.52753638  0.70132688
Si  1.15953770042  0.21240465926599997  9.621324527738  0.46536286  -0.19217411  0.19386652
Si  12.697779237659999  3.880649886685  16.025679941592998  0.1842068  0.05952643  -0.50325374
Si  10.084034027209999  -0.6697130800869998  15.539092760549  -3.55156379  -0.10851055  -0.58504482
Si  14.343806933829999  5.2566837867250005  14.085499201829002  -0.64535786  0.00166281  -0.00705877
Si  4.513398285385  3.930083450784  10.186253037966  -0.17832387  0.09628403  0.28513262
Si  6.832921864229999  2.561948402733  12.132067830765  -0.15689502  0.15996624  0.19528023
Si  5.166870731385  5.357351874490999  13.389460587395  1.59511966  0.39006907  -1.26048404
Si  7.984898367985  -0.478060817653  14.051331354787  0.30925339  -0.01357685  0.23816023
Si  9.03766850173  1.8402701455609995  16.081724347991  -0.89333845  -0.96003613  3.2007915
Si  6.2798412913499995  7.060596183671999  5.738729046664  0.45556696  -0.35252515  1.30960856
Si  11.19227703209  4.077841842553  18.463778155813  -0.42515437  0.3562282  -0.04441625
Si  4.23409664414  1.049986375667  5.215074305231  0.54518071  -0.94638283  -0.78131884
Si  11.96658405118  6.204629494422999  14.706921049075001  1.02461195  0.07164196  -0.29296413
Si  7.718131253525  4.9661996411819995  12.774176310984  -0.77665083  0.02548386  -0.34907318
Si  5.88801805614  6.4067208708839996  8.07853609708  0.01935352  -0.26223995  -0.36825095
Si  12.1415758761  7.156112464614  18.500614581418  0.00449998  3.68720339  2.22875599
Si  11.243065720205  -0.780441227906  12.997635958382  1.05681066  1.66834079  1.56155012
Si  3.115343142175  5.032673194109999  8.403241008590001  -0.15818858  -0.07501056  0.42028347
Si  6.69719621549  6.260304772764  10.67035146021  2.7142823  -2.6906293  1.32133732
Si  9.269000639085  6.003670484634  9.400510495396  -2.40477855  0.61905418  3.69293129
Si  14.316236757845  -1.7797489697239999  16.458266426028  -2.70413748  -2.05720814  -1.6821732
Si  9.569424475985  2.513798866381  14.137176477215  -0.3138191  -0.98840299  -2.57387326
Si  1.12634361334  3.181347515486  6.909467396834001  1.0671092  -2.09001573  0.7505305
63
Lattice="14.727256 2.798612 5.549586 0.0 8.73995 -0.111291 0.0 0.0 8.683971" Properties=species:S:1:pos:R:3:forces:R:3 energy=-297.34706903 stress="10.26664236 8.87442571 27.43486375 -4.77140284 5.51043128 -0.15083275 8.87442571 27.43486375 5.51043128" pbc="T T T"
Si  14.446215773752002  5.391933885654  11.856622281072  0.05038001  0.06106767  -0.11780916
Si  7.821778206904001  7.595540631008  10.398029624679  0.76928237  -0.33487055  0.07651731
Si  4.785194746776001  1.1981394574020001  7.405662683907  0.67132962  -0.83424572  -0.90158661
Si  3.2482435833600003  0.7312570305699999  9.819652989791999  -0.31080477  -0.18084134  -0.05326874
Si  13.313247969672  8.090518514594  12.717102426078  -0.66642556  0.05823956  -0.00593565
Si  8.427716427768  5.213315930236  9.096905893778999  0.09259236  0.10315293  -1.75212765
Si  13.7482616574  10.01663164975  8.179575355083001  -0.52486576  -0.66838314  -1.8263196
Si  5.807369403968001  7.718970326986001  3.167488937835  -0.0789218  -0.59127949  0.57249206
Si  9.89833603016  2.98991744722  8.536587662883  -0.40293703  1.02360379  -0.57764868
Si  8.838665779192  7.510647763534  4.096338536187  -3.03043249  1.10389594  -1.05679424
Si  8.292269854336  5.089130298872  11.333296874504999  -1.74931418  1.22175597  0.86965714
Si  1.164749222528  1.068989416556  3.2083634600310003  -0.88312252  -0.8055354  0.94559439
Si  11.101788481456  9.557292522712  12.086593911228  0.37484049  -1.51940548  1.65035809
Si  12.121164960008  7.024777665866001  10.332079483034999  0.24907507  1.84047799  0.72323399
Si  7.037713824720001  3.1019424015899997  4.448151969468  0.02951912  -0.74139915  -1.18348922
Si  11.338072576720002  9.23531657249  9.616299905772  0.43005227  -1.14857861  -0.91713529
Si  11.396569237552  2.4683217559540003  6.711297288234  1.53135619  0.4508185  0.06228974
Si  3.387681243168  6.708593965086  1.2239954840369998  -0.36368799  -0.29244283  -1.60545772
Si  13.600017098504  5.175562635258  9.330232139214  1.74540185  -0.16523092  0.1384642
Si  13.312909242784  2.939520914268  13.629807639549  0.76524819  -0.59786055  1.25519269
Si  11.710775244312  6.126389917274  8.190316217988  -1.25697635  0.35517624  -1.57935091
Si  12.450922949104001  3.1530917150080002  8.975150659562999  -0.72321367  0.20516871  -0.75766559
Si  1.9194621835040002  4.293632759858  6.370216482332999  -0.00458904  0.31676525  0.72216192
Si  8.088739176416  9.961955783032002  11.122495900613998  -2.90598735  -1.17986369  1.65911565
Si  6.468637925624  5.592590407997999  4.624604683259999  -0.38734649  0.31367005  -1.32273406
Si  1.689172081432  6.883584876914001  6.813907502036999  0.09461819  0.00734184  0.37256468
Si  2.64619335808  4.40769820511  8.934491867517  -0.01911977  0.30063835  0.00754438
Si  14.517230602184002  7.989805787868001  10.462063318515  0.03758994  -0.87041716  0.12478365
Si  3.451464988904  1.311481039108  3.488692733883  0.7544098  1.16708581  -0.31795973
Si  0.033327780327999997  4.472788567006001  0.194832549138  0.45493574  0.49219182  -0.81102238
Si  10.710647289352  6.746844179554  4.6983256309799994  2.31754158  -1.55284198  0.12686449
Si  12.364091047728001  5.072498763606  4.6572667486379995  0.13517973  0.41273793  -0.67683601
Si  7.248446130824  3.2011484622479998  6.704834433273  0.15505709  0.06062746  1.14018656
Si  2.478656093824  1.6759071010480002  7.067343243491999  -0.38002344  0.48540897  -0.10631438
Si  9.789560517344  3.836022700288  3.6823426519949995  0.89671692  -0.50579412  1.16982082
Si  4.442933317336  3.3448314615220003  6.455124678363  0.43295846  0.68328032  0.05967559
Si  5.803157408752  8.049772366904  9.038374275267  -1.14234459  -4.7881189  -0.31114474
Si  5.5419842508479995  5.763466217396001  8.084358490490999  0.2772837  0.04767107  0.06058334
Si  13.604921274752  10.183629407954  10.317996309495  0.97523539  -0.18018045  2.05606083
Si  13.910762200104001  7.166684175358  7.864413648735001  -0.06540174  0.596642  0.93306112
Si  3.40000795644  7.17153176833  3.451464505143  0.25635831  -0.13984668  1.11282102
Si  7.374555623952  9.521285557304  7.519825024011  1.23733486  -0.01785586  -1.86757406
Si  9.078101507240001  7.74460713928  8.050458874103999  0.20667823  -0.38540948  -0.13437987
Si  3.953060601008  7.712323292215999  7.556184622338  -1.06871726  -1.05784641  -0.53594482
Si  9.922503457256001  2.074158274712  10.628410744907999  0.7813207  1.84355209  -0.59235774
Si  4.2002134112  8.79150391365  5.107523194011  0.52591022  -0.55688492  0.65891081
Si  0.5917853278480001  1.743838213096  8.568467527812  -0.46269961  -0.52663745  -0.50298148
Si  6.393219647648  1.220589565546  9.574209068889  1.0057303  3.98707618  2.09435428
Si  1.8982843893760002  3.519679940452  4.096475006946  0.11740967  -0.19412218  -0.55930934
Si  4.600294047696  3.5815480675919997  3.0827749489829994  -4.27316847  0.34043451  3.21019665
Si  4.603990588952  2.7592618674039997  9.088689011775  -0.8791951  1.26610725  0.45114601
Si  12.157880009216  2.829743964682  11.547876475245  0.49760015  0.71503103  0.91253553
Si  9.552628422816  10.112394706632001  5.849475503037  -0.63254169  -0.93847322  -0.33804488
Si  1.3632873606640001  2.9128631322280003  1.7556980907750002  0.12408278  0.84718275  0.04280454
Si  4.046151586184  5.349320858267999  5.016760444269  -0.00537622  -0.35858125  -0.45054929
Si  0.2680360592  7.02750368645  0.775938266043  1.17475312  -0.33097155  -1.86802598
Si  9.714775511376  4.290089129602  6.1704757386899995  0.4602749  -0.43370584  -0.41939192
Si  6.913091784448  9.033679956745999  5.060056145238001  0.21074243  0.29488429  -0.5919277