63
Lattice="15.479828 -3.500864 24.629585 0.0 9.024327 0.147518 0.0 0.0 8.738507" Properties=species:S:1:pos:R:3:forces:R:3 energy=-297.62773938 stress="-27.23177616 -4.72612711 -18.46493083 -3.15869869 -7.84898328 -1.72155668 -4.72612711 -18.46493083 -7.84898328" pbc="T T T"
Si  7.514403865695999  7.320518788157001  15.51905539058  -0.05394626  0.05113266  0.18121306
Si  3.85981771266  2.530881748107  13.082446403261  0.26663997  -0.9241659  -0.0835267
Si  3.3401289270439998  5.516443142512  5.5874814536869994  0.23866608  -0.69685287  0.77237856
Si  14.048067748624  -1.7409848340940002  25.756980055718  -0.19753153  -0.54550102  -0.58922535
Si  3.459772517656  4.34863783724  10.065707080547998  0.71004351  -0.17593828  1.746042
Si  7.478676422672  6.427826558436999  13.136124334690999  1.48931317  -1.35072751  0.18344374
Si  3.469896325168  7.864211423324  5.9206662255359985  0.15460176  -0.55740691  0.51283785
Si  10.40221221858  2.5393068905039993  24.399751563955  0.43579932  0.13034153  0.40776587
Si  3.438472274328  1.6870461517409998  7.907311626721999  -1.10117919  -2.95652893  -0.22550489
Si  13.50684652226  3.4057189555149994  25.353864809479003  -1.8852122  4.35041801  0.16140586
Si  0.293234381804  4.313026588461999  4.023193727936  0.8292687  -0.4998856  -0.38254248
Si  11.661790343112  0.021447566153999897  22.182725269773997  -0.32394867  -0.37760607  0.31498741
Si  3.2331168760799995  -0.572479616091  9.943811586378999  -0.00533472  0.36146847  -0.48868945
Si  1.1274268328959998  3.905799328426  7.933185510803  -0.55288358  -0.75604243  0.29790019
Si  3.3031321381239995  1.856294941394  10.629864264187999  -0.17706013  0.2770112  0.57497243
Si  2.235503880792  0.773985551634  5.830044998097  -0.62776659  0.67883488  0.16469399
Si  12.148522574915999  3.9820452739080006  23.390424358601997  -2.12933218  0.82684836  0.76031369
Si  6.376961584084  7.1607175503619995  17.857632205024  -0.47996284  0.33704644  -0.25962521
Si  9.63983068958  5.372817988264  20.872350743749  -0.62227269  0.46382107  1.18493869
Si  15.23439532706  5.1517936558479995  31.045569620052  -0.27144543  -0.45482704  -0.86173239
Si  13.92085452212  2.836226560798  22.879765630827002  2.17465012  -1.42181945  -1.10461822
Si  5.735229834516  2.9084572591319993  15.385358148759  0.28691295  -0.99594282  -0.92959672
Si  5.908650347599999  4.788178997347  10.938082536894  -0.24280024  -0.0187309  -0.1375722
Si  12.765331801403999  5.255163849581999  27.603633724482002  -0.49166967  0.1953344  -0.6323594
Si  1.786852025868  5.776409673087  9.29565874982  -1.36242298  0.76125831  1.00118023
Si  11.558044535856  0.7315623737850001  26.277684207718  -0.03095415  0.06370323  -0.49871651
Si  9.187370796967999  2.620542552499  21.871780362621  0.01185723  -0.21226335  2.35857842
Si  9.128593890052  -0.9727279281160002  22.408031836399  1.12128837  -0.42725452  -0.11249025
Si  7.2548690694480005  0.5340366363059998  18.230368451844  0.26639552  -0.26194663  -0.25197461
Si  11.644700613  -1.305838882779  24.511889042302002  0.57583918  0.99348124  0.46790639
Si  13.517156087707999  3.8133445070470002  29.359710157676  -0.1969902  -0.123553  -0.28807995
Si  1.048665468032  0.19235031274899997  8.121190304762  1.12854892  0.87692135  -0.39222149
Si  13.324896623948  1.7982138113410002  27.586886759726  -0.52386377  0.69282278  1.43893244
Si  15.0022753062  -1.511488701294  31.870882579532996  -0.45839551  0.13527826  0.59607732
Si  8.096739515228  2.153407757227  15.917759319131001  -0.79258979  -0.45332927  -0.00231756
Si  12.885006351671999  -1.2807783976949998  27.904614751257995  -0.62254279  0.18043054  0.6757735
Si  10.703140074899999  3.280073450373  18.055079001592997  1.15073016  -0.57311036  -0.66690373
Si  4.208794955091999  5.896191937238  12.272819287461  0.3035015  0.2963195  -1.4327411
Si  10.067476417907999  5.557734316416001  18.557494378645  0.46709461  0.6535446  -0.35774842
Si  3.5137661577199997  6.523671007252  8.009960562506  1.3852905  0.95376063  -0.19322708
Si  13.004309386068  -2.684330397123  21.808118318490997  0.40822086  0.36088213  -0.46512176
Si  0.5846266640760001  2.971068438072  1.676560353284  0.26307644  0.68432354  0.12880431
Si  8.971040200668  4.945212885432  16.446534441984  0.21809081  -0.09670955  -0.45769812
Si  5.581995017143999  0.22553550341499995  16.280521297303  -0.12212549  0.07553457  0.16636757
Si  9.1152967178  3.0386507349580003  19.763262969878  -0.61167941  2.20166646  -1.29093311
Si  3.9497400335119996  3.8337371755059997  7.889632017124999  -0.17114795  2.35773334  -1.41340528
Si  7.4129026335  3.0502406264249995  18.184071719817  1.24954389  0.89099157  -0.26499794
Si  5.299101160444  2.468202914663  9.307063955986  -1.31030583  -1.12813211  1.33264235
Si  15.439534007715999  4.70760787196  25.851504062567  -0.39405969  -0.20549079  1.57848762
Si  2.05788833432  3.38040233416  5.701876895570999  -0.70240006  0.53356229  -0.69410019
Si  6.037086480516  5.0026718414880005  14.373301228808998  -0.60036143  0.64263751  -0.39214924
Si  10.222212778595999  -1.1532949968419999  20.000250788155  1.07585357  -1.14777978  1.27643981
Si  9.619304437652  0.9254257247289996  19.35294674731  0.32230807  -0.41552064  -0.32754502
Si  5.3966550365  -0.18110282544800005  13.656311552375  0.47359996  0.36844819  -0.46740177
Si  6.448927304455999  4.9837835173239995  16.823153953419997  0.40799375  0.41323112  0.17186765
Si  10.840275871152  6.038722428726  23.178681359353  -0.38496651  -0.5744836  -0.16258288
Si  11.510707221832  2.2806360152600003  21.100876804025997  -0.04997182  0.07399603  0.27168398
Si  7.565905253452  0.7033438037659998  13.843250464881999  0.30408102  1.11004603  0.59680592
Si  13.64090183274  0.5718679501469994  29.686240735939002  0.3585134  -0.58396763  -0.00810764
Si  6.324686204928  7.472950789593  11.554327330098  -1.95112453  0.8157287  -0.80220264
Si  9.545310859812  -0.7818926970659998  17.700149130606  -0.33416173  -1.00648846  -1.40710782
Si  1.753926431712  7.268538288854999  11.565410346098  -0.47973395  -0.42279757  -0.63494031
Si  14.2805283257  1.5122251335309995  25.554636075750004  2.18442019  -4.44375595  -0.64473347
63
Lattice="14.463187 -4.852649 2.873516 0.0 8.903407 0.042102 0.0 0.0 9.207084" Properties=species:S:1:pos:R:3:forces:R:3 energy=-295.77170067 stress="2.01581522 -9.85593226 21.8360474 -9.00729356 -22.97664997 0.87197456 -9.85593226 21.8360474 -22.97664997" pbc="T T T"
Si  5.774948084481999  5.663288264321  6.95771347685  3.30282396  -1.05803218  0.22431344
Si  4.5182996188  0.5203128605559995  9.526094416268  0.30581845  1.04998534  -0.22524413
Si  2.929388358167  4.100397391029  6.869805654304  -1.38433582  -0.76899341  -0.10446123
Si  1.752967190774  1.2539107237599998  4.0569821419959995  -0.52495832  0.65179314  2.98083807
Si  10.672081960373  2.5875769645009994  4.230303815008  -0.86058487  -2.12842932  -1.87612446
Si  14.246268121374  -1.6519596366860005  8.070515702868  0.98135754  1.47601538  -1.2736215
Si  11.966898776548  -3.2303638036230002  6.926990973122  1.41472456  -1.53206051  0.45050615
Si  12.395486396919  -0.27405835788900035  11.328443210076  -1.72075938  -1.32671747  2.40940462
Si  8.730644979802  5.117439020206  5.71567238582  0.08088041  -0.9120978  -1.33117284
Si  13.02453378911  -1.2131462112360007  5.940210704056001  1.63538361  -1.64773396  -1.691763
Si  5.997305121419999  -1.4943060559640005  4.325964105060001  1.52515101  0.78994821  -1.44347594
Si  8.254863980249999  4.241908243448  3.2498178214199998  1.04214438  -0.20446037  0.29614193
Si  3.424694660169  2.8521469070370005  1.2960429859320002  -0.31226588  -0.00358206  -0.26526239
Si  3.456441355634  2.820047035019  4.51371665737  0.37243892  0.29286906  -0.78341505
Si  12.679702484656  2.3140156859699994  8.907166604936  -0.00722158  1.53056013  0.27589942
Si  11.909046028548  0.23527073305299906  7.066456056642  -2.3415595  2.0093963  1.35716715
Si  8.734506650731  1.0249388123529992  3.159786701684  0.04804064  0.66009895  0.33955211
Si  1.8005800023779999  7.858242146241999  5.250419215104  -0.58732813  0.03357297  0.43953079
Si  0.7993803454899999  2.7776852380980004  0.393198142856  0.33581643  -0.67758173  0.0489735
Si  9.789249025893  -0.97818587108  2.206448743938  0.31955783  -0.07467034  0.29458979
Si  10.384626118747999  4.728299031018  9.783353818924  -0.02967279  -0.06777094  -0.05625752
Si  12.307868410073  -2.8250998474290006  2.461339961824  0.23176136  0.75478735  -0.11440299
Si  4.691091313889  4.752062079402  4.627804547854001  -0.38562961  0.10410955  1.03110715
Si  3.716012172723  6.323486904748  6.834632162430001  -1.90723004  0.4663614  2.35693199
Si  5.069679696801  3.265168367626  7.029436120098  1.36210059  -0.55067734  0.19608091
Si  0.9758890796380001  5.541493477413  3.867360133034  -2.03901712  1.12012351  0.47974786
Si  7.220948594367999  4.627579047347  8.938195999682002  -0.9049487  2.08792076  -0.79596823
Si  13.748604319891  -4.160431930524  4.176231283478  0.57247726  0.39402389  0.13006711
Si  6.421033110959  -0.34279126980300023  1.9066276726480003  -0.34046706  0.76246702  0.62869876
Si  12.686153066057999  1.0988779450569996  4.398698920938  -1.1501115  -0.15094266  -0.49227888
Si  6.344826578656  1.2293169404919997  8.011254486872  -0.66402108  -0.08005166  -0.51193129
Si  10.393029230395  3.345335812657999  6.235132282826001  2.25947468  1.06701795  -0.2121583
Si  13.335419993675  -3.162222025077001  9.398318563084  -1.00790626  -1.6167606  0.63383242
Si  9.348353233385  1.0031852709179994  6.998557790097999  0.17424747  -0.44377938  0.12418641
Si  1.719629544739  0.9440214164710001  1.974401516336  -0.10614799  -0.86791557  -3.69840491
Si  4.734827991377  5.186422097464  0.9926213755900001  0.77133681  -2.17509786  -0.09991575
Si  7.667991241350999  -2.2464781287620004  10.51086881879  -0.10103763  -0.78977045  1.41359264
Si  3.8336123462200002  7.068616047382999  4.80525858665  -0.30809915  0.39724857  -2.15248828
Si  2.8027342296080002  1.5410672175259998  6.359370986356  -2.23978839  0.12032544  1.44020699
Si  2.7450550398519997  4.7442868283449995  2.857765793462  1.69903873  -0.72398353  -0.82380716
Si  8.953334670041  0.0011329561749997552  9.337610534044  -0.05824689  1.4895573  0.0032336
Si  7.731484632281  -1.6913479784710002  5.97474263092  -0.75274341  0.09681308  0.91762114
Si  4.194815978358  7.2973120795429995  1.183910318766  -0.43683588  1.44739015  0.67723239
Si  14.145040275561  2.5221150188859998  11.431543131594001  -0.36759498  0.74838039  -0.42154414
Si  10.917666875633  -2.8381384027200003  4.61462689681  -0.07113633  -0.28215969  -0.5144051
Si  10.181447267772  -1.8800801208390006  6.670241421809999  -0.57431001  1.48240336  -0.06782295
Si  8.837701489976  -2.1404165518930007  8.56740066067  0.44675679  -1.32156815  -0.86710747
Si  2.389622219327  6.661610431391  8.809166606728  -0.02438271  0.0589639  -2.0831732
Si  6.225346190849  1.0611806943719997  4.796037741538  1.8016282  0.95409888  -1.9474443
Si  14.28369884933  -4.773240783825  7.753893963454001  -1.73039382  -0.21384743  0.00996128
Si  4.602301808896  0.3092794056049999  6.051973958222001  0.24376558  -1.45311241  1.28968118
Si  12.041977180264999  3.7518458645469988  2.85839066356  0.14138761  -0.34641124  -1.15581712
Si  9.153418398999  3.424591027665999  7.9346197282620015  -1.42970976  0.29971967  2.67900119
Si  12.789998748718  0.09422341435499959  9.266822788862  0.94947938  -0.66921792  -2.03473348
Si  6.166061587335999  5.145147572063999  2.952033890204  0.43838707  0.36672039  -0.7483394
Si  1.444496338438  0.3185941064999999  8.587328115956  -0.02229928  -0.12674955  -0.02193968
Si  1.806379740365  7.104421319657  1.669406656204  -0.39002982  0.75547883  2.10585499
Si  10.023827455846  2.138799985892  10.449111209816  -0.32957526  0.33514869  -0.41821954
Si  5.634929971135  2.3898657663379996  2.2464690344180003  0.33622067  -0.63605569  0.52240943
Si  0.851520134625  5.309922424891999  6.260860389066  -0.19245194  -0.19352644  0.18432902
Si  7.454919570467  2.5571986270269993  9.735122408992  0.29927599  -1.54280762  1.13362038
Si  13.341494532214998  2.167527337478999  6.301428240063999  0.9400433  0.68798912  1.37530221
Si  14.438049980994  0.287886766902  3.161204383884  1.27128167  0.09527663  -0.21691576
63
Lattice="15.616781 7.013559 13.23323 0.0 9.112146 0.605013 0.0 0.0 9.132061" Properties=species:S:1:pos:R:3:forces:R:3 energy=-291.28958206 stress="-33.46204489 -2.11041042 -28.28726487 -2.10061651 3.15094855 10.6788254 -2.11041042 -28.28726487 3.15094855" pbc="T T T"
Si  6.023142563204  2.929641000402  13.796555012399  0.40295226  0.92358416  0.05267631
Si  9.43675225487  7.097183123057999  11.491691014461  1.92042467  -1.91998656  -1.78587363
Si  8.795886412973  9.200659065008999  8.140542273543002  3.04582606  -4.39076091  -0.75519977
Si  8.362458273099  8.690724496923  12.390379691369002  -2.02869537  1.93450428  1.61891389
Si  13.857597470693  15.051586579922997  13.114028514745  -2.36411288  -3.75930842  0.21272158
Si  5.425082318027999  8.028595794822  5.140294118852  0.15870301  1.34665812  -0.70975513
Si  1.82279067832  7.544926307153999  7.239635601205  -0.41169232  1.13822078  0.8310321
Si  8.50630444289  11.541547271291998  13.241116558703002  -0.89072908  0.36656586  1.6914162
Si  8.843033474812  12.898429004148  8.894550846313  0.41427739  -0.49266847  0.00544017
Si  10.694434095923999  11.964841321932  14.682852947045  0.56194209  -3.78864415  -0.90230261
Si  15.489613552317  14.287241943230999  14.735800128032002  0.2127678  0.04556917  0.31142365
Si  2.224423052078  9.936499926606  5.749408989599001  0.19452142  -0.80371872  1.17966052
Si  10.637604629865  8.919890945733  9.917564854183002  -0.07678718  -0.56283256  0.14900074
Si  0.350534266326  9.190761394559999  3.698310468479  0.41209322  -0.11147714  0.45506621
Si  2.4478523378449997  7.466096949260999  9.77455785114  0.4754612  0.77879049  0.4558784
Si  5.779083509736  7.9126019203919995  11.586340447472  0.26399634  -0.1360622  -0.00132009
Si  11.359599649057  13.847242590927  11.013277742539  0.7573614  -1.03241922  -0.93861512
Si  1.4010907409770001  4.840513980308999  1.7429852374600003  0.5767566  -0.11765838  0.82068543
Si  1.9913269788719998  3.6265261282859997  7.972263166374001  -0.1778294  -0.25744045  -0.11607495
Si  7.900513891118999  6.247206578325  14.418629515524  0.34137581  -0.37438214  0.26141626
Si  1.9657779251559997  6.298114223316  5.4120257197970005  0.26086656  -1.01502267  -1.06772688
Si  9.825266532588  7.653656716325999  15.195919167235001  -0.35438955  0.56174754  0.61804713
Si  12.239277306006  12.473951630201999  13.069917789313  1.09123767  0.05796283  -1.00299947
Si  9.460271127056  12.522465172638  11.338099338274002  -0.12146365  1.14089203  -0.57263196
Si  9.870102310839  4.5925660350449995  14.864267647105  -3.65757744  1.82264514  0.77364368
Si  8.150444854243  10.596754373043  11.056171908282  -0.8708186  -0.48668173  -1.38297826
Si  15.453616872111999  15.9202283214  19.612999224538  0.18912311  -1.13702483  -0.86038836
Si  7.63301404937  10.836601976999999  8.468735136288  -3.0349175  3.88607057  1.26768304
Si  7.225806484795  7.447651304559001  9.285100251991  -0.17050339  0.90179606  0.37045369
Si  11.176586592518  10.365737291268001  17.155134099157003  0.39508946  -0.07123344  -0.60697765
Si  7.740113933468  9.524193781800001  14.679678864456001  0.97151312  -0.74615386  -0.67525889
Si  5.113324518925  8.797611801464999  8.582998523152  -0.13537054  -0.09738118  0.22569732
Si  11.383430856862999  6.688900631438999  17.506962727617  0.07776035  0.29162997  -0.12775264
Si  0.397509543574  1.767462701682  6.894404309576999  0.44099399  1.89945628  -0.8980915
Si  13.991308349615  11.236651024851  14.544514395761002  -0.2618787  -0.71050622  -3.24717038
Si  14.725375140519999  10.82449444764  21.439532205661003  0.18341399  0.58606467  -0.77937046
Si  3.633353417117  4.297511908562999  9.652781479577001  -0.03207671  1.38262966  -0.2242714
Si  5.418804372066  5.502841808208  11.402184923434  -0.50162841  -0.11324251  0.12662292
Si  2.5954621518570002  10.091626434489  8.380834175977  0.66499017  -0.35566702  -0.20110122
Si  10.379646641307  10.198873614975  12.218252690535  1.14151537  0.00409361  -0.3606096
Si  5.812019300865  10.131384717926998  6.652065660199002  -0.35851865  -0.0531896  1.43415051
Si  8.127722437888  5.915390240718001  7.8302261082180005  0.23731214  0.38767227  -0.87481115
Si  7.739442411884999  5.477926243989  11.896699268910002  0.35935966  -0.46199818  0.23385524
Si  13.269141545832  8.493002692284  16.552292588427  -0.286127  0.19480075  0.32661831
Si  4.0124976262350005  2.617265147847  11.0679640542  -0.22391878  -1.22379552  1.63286866
Si  11.276830709757  13.000757256945  17.278607002263  0.37742931  -0.75104266  0.59941528
Si  4.126843696717001  4.262934163881  6.7764984965220005  0.74612308  -0.36567824  1.80809195
Si  3.410330167656  4.469977568658  4.714881075345  -1.22860995  -0.39169093  -2.19531164
Si  2.4412620562629996  7.447318541906999  3.4427563188990002  -0.61302469  0.49498745  -0.64679659
Si  11.962704114496  6.62902689576  11.469542465006  -1.77092512  0.43128769  0.27103549
Si  1.891473281158  2.477990972082  3.6055024419260002  0.63281367  1.4409441  -1.23585811
Si  4.504098275334  10.40884413927  4.504322297493  -0.88269311  -0.65279585  -0.7117314
Si  13.339994881229  8.433273478604999  20.510446698412  0.66681293  1.45983054  -0.25357136
Si  15.352154645955  7.3473783195869995  21.732888937244002  2.5862561  2.64746864  1.63579554
Si  14.299786624708  10.143583090272  18.787812050248  -0.70767059  -0.43144028  -0.25984789
Si  14.512471565146999  9.042912896289  14.35211551833  -0.35229477  -1.45257486  0.23319345
Si  5.5015108442419995  5.722702368263999  5.301948872885  -0.04644474  -0.94707224  0.00045186
Si  11.576844689547999  5.939724164154  15.024589764778002  2.32536071  1.27722255  0.29183801
Si  13.851241440826  12.227848575605998  16.345713925636  -0.33907243  2.26743014  4.22882635
Si  11.578843637516  9.389159114136  14.527127193420002  0.14389784  0.41131001  0.39023736
Si  13.995712281857  14.669242471736998  16.804257049065  -0.57436194  -0.13227632  -0.252047
Si  13.368682907925999  12.324733219241999  19.509991842983002  0.15917291  -0.07263811  0.30175637
Si  0.891968063596  5.89093687737  8.837790815134001  -0.9153689  -0.66536981  -1.16916853
63
Lattice="14.376489 5.400802 12.278445 0.0 8.878206 -0.014597 0.0 0.0 8.817304" Properties=species:S:1:pos:R:3:forces:R:3 energy=-296.24088456 stress="18.95723579 38.19489266 22.61348595 -1.07349196 -16.37085303 1.8686218 38.19489266 22.61348595 -16.37085303" pbc="T T T"
Si  10.127977723698  4.703002530202  16.301877722905  -0.97261346  -0.16676844  -1.20511235
Si  6.027299883783  3.0274850148839993  12.335599946994  -0.23306538  -1.02094521  -0.48975271
Si  10.407054128166001  11.20431509724  9.386353741044001  1.80730385  2.22879449  -1.40979791
Si  1.532289327087  0.957556345274  4.696914640960999  -0.09014536  -0.23340213  -0.12173475
Si  13.628350888929  9.711779763072  12.99354923752  1.8325002  -0.12200835  -0.26257588
Si  13.385704507586999  7.482868438794  13.549650765545  -0.37468274  -0.9944911  -0.20606606
Si  4.54067028576  5.591797826292  11.244311845346001  0.52790495  -0.2307554  0.96129925
Si  9.650448265074  9.305420120776  13.077634361084  -0.75267342  -0.38225199  -0.63418302
Si  9.115211579604  9.897713628682  10.382808916569001  -0.1292987  -3.47255714  0.19532863
Si  12.974508169208999  12.963187849452002  14.008881333238  -2.24621491  1.97921338  3.84475998
Si  7.899435034341  7.370320020568  13.693161787324  0.88464962  0.49749441  -0.26159209
Si  6.350310838635  3.1950057836259997  9.400010571201  -0.27856821  -0.70322265  -0.29227233
Si  10.874203761731998  7.255038640857999  12.267886747033  0.85453271  0.16224509  -0.99191283
Si  3.67089270126  6.718429383904001  9.330915844312  -0.66493299  0.8978943  -0.03465827
Si  14.287656674468998  8.03961952094  16.38815708299  0.7938404  1.57354439  0.2892985
Si  0.759696808227  2.293342918282  7.505655555153  -1.63997297  1.29316675  -0.64143765
Si  11.394762051933  6.659237388666  9.729235286585  0.86917721  -0.87728441  2.52138181
Si  8.12947323483  11.514202690253999  11.293263063787002  -0.1593203  -0.74652886  2.29397835
Si  10.053881299392  7.172108964957999  16.922194924186996  -1.41897218  0.03167951  -0.72244877
Si  4.204677361340999  2.601635113064  8.136035734372  -0.51379886  0.88941112  0.76829886
Si  6.0195078267449995  6.670579516426  6.014583866505  -1.12281437  0.08094604  0.7397746
Si  4.266841299776999  8.443355995836  7.64460687723  -0.4620528  -0.39601991  0.09799994
Si  6.987218054313  3.284647708112  6.6493837207199995  0.29427768  -0.1944621  -0.97265065
Si  12.49302517611  10.684771274728  15.904051303107998  0.34360243  0.23141239  -2.71011299
Si  2.285847374511  9.70183256888  2.21992781032  0.67374396  -0.31632165  -0.16805298
Si  1.3410101409419999  7.1457039688520005  8.138493331594  0.58847785  0.54262245  0.34184113
Si  10.244384155131  5.3126918218779995  13.712851517911  0.51508141  -1.3493815  -0.87101186
Si  6.18505309758  9.137920147886  13.057895781971  0.24856382  -0.18378842  -0.17852715
Si  10.202534195652  9.681560902415999  15.487737203864  0.72793675  1.32076324  0.41537158
Si  1.2039303183269998  6.36417907702  5.809722206549999  -2.37000178  -2.70973882  0.00774906
Si  6.489518381622  6.110558697216  9.111112110888001  -1.19229741  1.35473578  0.52853021
Si  13.516458675042  12.111624855758  12.220875959258999  0.58827899  -1.54246599  -3.82619497
Si  2.115514732839  9.661965952486  8.291749886127  1.50812612  -1.94666322  1.5351979
Si  1.480735237533  5.63700622942  1.369027608822  -0.71052476  0.0389231  -0.0492385
Si  9.441572256393  11.981823677494  14.325424824615002  -0.5032888  -0.16159234  0.30743316
Si  2.107981452603  7.103846194142  3.210450338763  -0.65925039  0.90474248  -0.87861701
Si  13.816366612070999  13.257998267272  16.292257405668  2.06890867  0.41182162  -1.22211607
Si  4.935994980282  10.035451969398  10.945829797039  -2.08931884  1.42235431  1.73756135
Si  6.083900120976  9.477590110048  9.126336359176001  0.4925402  0.34574221  -1.13428563
Si  3.564377294259  6.072024493880001  4.778530732516  0.68138189  1.57553087  -0.16009342
Si  2.722446968952  4.002691160624  4.50556101148  -0.39326414  -1.59935428  -0.2026839
Si  7.9243351132890005  4.73177590475  8.216907311779  1.15981044  -0.97685407  -0.47513533
Si  11.811680232933  9.511514821622  10.955880959911  -0.16644908  -0.02609085  -0.1622159
Si  10.446186931224  4.573456934134  11.096572767087  -0.15123151  -0.01224754  -0.04893528
Si  11.607519712643999  10.553818238454  13.358057458774999  -0.88233685  1.78386787  0.66764316
Si  2.6081682578909997  7.977991830096001  5.90990566432  1.86528487  2.431544  0.04714219
Si  7.577027892027  4.619849902368  10.939845706784  -0.30658477  3.93533397  -0.59135702
Si  5.393296718883  4.56899930862  5.127516968262  0.2075775  -0.55510397  0.60554153
Si  3.140932187253  3.9424758411019996  10.342995212483  -0.04255958  -1.03555227  -0.13577835
Si  10.371601706292  7.388052692232  14.680431666011998  0.34727878  0.23053786  -0.34825913
Si  4.006684354832999  9.962291126208001  4.821175179336  -0.49828128  0.42123549  -0.2055818
Si  7.865851556037  9.451388920634  15.403918243937  -0.22299348  -0.47008963  -0.21481804
Si  12.885819608568  10.997928285284  18.077147194522  1.23961467  -0.01089883  2.27964444
Si  2.370352376853  4.04809965552  6.885467583728  -0.72299767  -0.22699413  -0.19416082
Si  5.608570265169  10.129526295586  6.626997488724999  -0.09149931  0.55070032  -0.19710797
Si  13.601409348543  5.948192874886  18.767448599159  0.69922151  0.05499914  -0.03066727
Si  4.238634628359  5.267075465304001  7.67096297806  1.0814379  -0.85380734  -0.58469785
Si  5.452872889299  7.763421184612  11.008492991602  0.9609628  -0.69949783  0.02743206
Si  8.242328673480001  7.929514463126001  11.057786100767  -0.60923149  -1.5813603  1.9137518
Si  7.991042022249  8.13206320105  8.755609443345  -0.06288946  -0.26333955  -0.93486064
Si  12.680264568845999  6.5969325142279995  15.841490767385999  -0.93016514  -0.7995568  -0.76629161
Si  11.821427492475  8.889991055269999  17.240200288327  0.37581618  -0.80197427  0.51861155
Si  11.948055607587  13.046013293228  17.443804155926  -0.57354097  0.47211474  1.89142572
63
Lattice="14.361645 7.16335 14.387796 0.0 9.127646 0.743224 0.0 0.0 9.097934" Properties=species:S:1:pos:R:3:forces:R:3 energy=-294.41361742 stress="-18.04719591 -15.83812116 -17.34933118 11.42428267 4.33204194 -10.52615055 -15.83812116 -17.34933118 4.33204194" pbc="T T T"
Si  3.594705381855  9.871685390976  6.325896646532  -0.91219868  0.41237799  1.15301928
Si  2.105546411805  6.674420598908  2.852455099142  0.15818158  -0.04005788  0.27228998
Si  12.9274911303  10.288000285908002  17.576706525568  0.17803252  0.24284956  0.62030123
Si  11.704209294135  13.466085414692  13.650060171972  0.09263658  0.10314736  -0.51028029
Si  3.035893774905  8.914136409456  8.776288208988  0.78768857  0.08934602  -0.25358506
Si  9.783310552095  10.777097514512  14.543992910572  -3.48297454  -0.48074955  -1.44405883
Si  5.351048395485  3.2316512936360002  14.27515293567  -0.28819527  0.58165892  -0.70050992
Si  6.953606914455  4.848681033646001  12.965627233752002  0.32641813  -1.86904938  1.67999621
Si  10.929743225865  8.624636228222  17.326055737329998  -0.14091822  -0.48395938  -0.3777239
Si  8.73443653281  7.148054214250001  14.18150105861  -0.58781581  -0.71444721  0.56980117
Si  13.724375726415  7.28526065473  14.593016812008  -0.52249344  0.6893175  0.81545784
Si  1.7680908392399999  3.874274426902  10.387904503048  -0.28581054  -0.69439355  -0.16028921
Si  0.1065634059  2.4815075094240004  8.148198746804  0.71926436  -2.44268305  3.30615206
Si  6.035825990729999  6.938497044018  7.532113930964  -0.79082163  -0.02606522  -0.52012467
Si  12.47446740042  15.286393803944001  20.592850355826002  -1.50013442  -2.33715636  0.83874728
Si  12.5431735101  6.427962878384  16.568141006948  -0.34136239  -0.06639441  -0.01493912
Si  12.432832991565  9.52567055461  20.172547487832  -1.07779565  0.34283217  0.17094862
Si  3.401455086735  5.226532969276  5.326709110266  3.05454871  -0.48029591  -0.00287915
Si  11.142439188314999  11.159701574073999  12.48607450688  0.22989673  0.41955478  0.13004529
Si  11.681963106029999  11.00369615872  15.549213213356  2.46348127  -0.31836968  1.3645905
Si  8.976229188029999  6.312891434544  11.380393186832  0.03541456  0.42630232  -0.14274787
Si  12.402127794555  13.09647051102  18.525141465298  0.57124025  -0.19227685  -0.7188451
Si  8.41072505451  8.88733330829  17.003870188100002  3.19412547  -0.56612061  -0.39454701
Si  13.332661859039998  7.862316453876  18.758774939732  0.59267798  1.65930009  -1.5910634
Si  6.312129678884999  6.436702068864  11.640729888364  -1.05903081  2.35414987  0.92964934
Si  4.204874231325  7.387513370784  10.651135885258  -0.30936814  0.06806581  0.04582348
Si  8.937151151984999  5.7115125266939994  17.279539809459997  0.15979202  0.58346164  0.41298353
Si  1.300231530075  3.385558949456  3.55775040171  -0.40608366  -0.55838355  0.22326639
Si  2.144322853305  5.254687847902  8.322918264142  -0.90252506  -1.24879595  0.37238334
Si  9.64706162598  9.018096349226001  10.765677884632  0.14611775  -0.25329717  0.2241751
Si  0.16984081377  7.7654635884720005  4.619949033836001  -0.0719405  -1.13405324  -0.21737006
Si  4.480215689264999  2.853977084696  7.729875225094  -1.24290047  -0.81683979  0.47937743
Si  8.95773138927  12.129914502712001  11.542577123122  -2.34568385  -1.64564175  0.6224861
Si  6.835295682945  6.078465588608  9.566900482580001  1.21906954  -0.95049924  -1.85939394
Si  11.40351953277  8.962867276608002  14.386086967872  1.75175523  1.21135667  2.00338289
Si  2.44616154627  3.1251448764060004  6.303116947492001  -0.11218306  -0.61921656  0.50176394
Si  3.871597897455  4.8750831599060005  10.239526932619999  0.8354315  0.34664847  -0.12377089
Si  11.669985494099999  13.229641307678001  16.083594348364  0.32551429  1.44301953  0.54657084
Si  10.620479562435  13.32198007241  20.020442502596  1.67259018  2.25908027  -0.4561927
Si  14.238881658539999  12.457864378806  15.746311181460001  -0.43203362  0.85218739  -0.0859818
Si  5.084108499869999  6.869775605006  13.991555236478  0.45071322  0.52716608  -0.15986188
Si  6.263616042074999  3.6350163606400003  10.871205462832  0.14419139  0.01269515  -0.30301637
Si  10.310670156495  10.999928445882002  18.17450037573  -0.24980364  -0.01680424  0.2733307
Si  9.07506602892  13.120189175892001  14.449579908938002  0.42537221  0.33884499  -0.10476325
Si  10.71079994784  7.52031673526  12.997857777836002  -0.47259878  -2.21728692  -2.8107327
Si  5.801314689524999  9.113788952432001  15.148333434726  -0.32190153  -0.53059156  -2.1915676
Si  1.0272310202700001  0.6201723990060002  2.4711682377200006  0.09519077  0.13782353  0.07375376
Si  5.84484483552  4.565854628134  7.209917066992  0.58198903  0.64833258  -0.09884996
Si  6.164779201185  10.469168119212  12.967103299560002  0.53849378  0.58840905  0.79629882
Si  7.29873160545  11.164605509512  15.79992215316  1.05214358  0.04268474  0.47534556
Si  14.19602650986  10.839579891768  20.860149079190002  0.06120312  2.6540084  -2.50536601
Si  5.150646001155  9.626881163106  11.154206039364  -0.96183157  -0.40383725  -1.31907414
Si  6.318534972555  9.32625026873  8.202574161122  -2.0772207  0.9770159  2.6167522
Si  1.282308197115  5.237736980409999  5.296112543004  -3.47029916  0.29642422  -0.78267209
Si  3.332921316795  2.0712239345440002  9.779689541366  0.40545822  -0.80258593  -0.33164755
Si  13.912283489595  7.294737753550001  21.341741337318  0.39718149  1.31544721  -0.03711277