63
Lattice="11.56165 0.0 0.0 0.0 11.56165 0.0 0.0 0.0 11.56165" Properties=species:S:1:pos:R:3:forces:R:3 energy=-278.40474351 stress="1.72079224 0.73817488 -0.43450068 0.78570326 4.5295 -1.06582965 0.73817488 -0.43450068 4.5295" pbc="T T T"
Ge  4.35491514385  4.30966284575  4.254479090299999  0.49014308  0.06158551  0.55992733
Ge  4.26505800005  4.555313223300001  10.306447906099999  -0.13690767  -0.17523754  0.01155016
Ge  4.3782118686  10.089123571050001  4.36157465425  -0.59270975  -0.37339228  0.39390383
Ge  4.46051925495  10.1493019593  10.19043831  -0.41762479  -0.12734054  -0.59979108
Ge  10.2142090624  4.1833055729  4.3375379839  -0.37893781  0.70215585  -0.93710377
Ge  10.09774856195  4.37838529335  10.3088527293  -0.6552647  0.06194626  -0.58061912
Ge  10.13282660805  10.06565342155  4.34122615025  -0.05268575  0.54985656  0.78284747
Ge  10.17398608205  10.155903661450001  10.10739097805  -0.10438057  0.18769047  -0.13311773
Ge  2.7985436291  11.374224091850001  0.037598485800000005  -0.4258271  0.75818492  0.14923949
Ge  3.0341469328  0.17937899975  5.85825337005  -0.47917216  -1.1271933  -0.24699873
Ge  2.87106985955  5.67507058745  5.72147905055  0.00289965  -0.20666054  0.38386107
Ge  8.7269877763  0.00657857885  0.0466396961  -0.43156906  -0.00265902  -0.65731778
Ge  8.6335927676  11.4433280739  5.875688338250001  -0.14836438  0.41490889  -0.77872282
Ge  8.55038357255  5.88734248145  0.0746420124  0.09590412  -1.18047916  -0.2353889
Ge  8.7387112894  5.84731604915  5.4507167692  0.45908846  -0.53758579  1.39572999
Ge  4.2583638047  1.4357950669000001  1.4109259577500002  0.27331861  -0.79848483  -0.50119788
Ge  4.4100064061  1.6254986201  7.2982684392  -0.2170014  -0.08185107  0.33539177
Ge  4.25541558395  7.260253734  1.3862187117  -0.56301394  -0.18615017  -0.10871054
Ge  4.33708707955  7.1515279774  7.13567695525  -0.38739  -0.42490498  0.3577307
Ge  10.15733730605  1.3877217262  1.4690463723  -0.37563121  0.97561655  -0.07850375
Ge  9.99431804105  1.5169578498999998  7.208052884250001  -0.11498902  -0.06298777  -0.14805171
Ge  10.09536686205  7.181854185350001  1.3580314089999999  0.60744447  0.58347139  0.73901871
Ge  10.1858598966  7.220250425000001  7.105975076400001  -0.70525626  -0.0384216  0.4657213
Ge  2.97762202595  2.88163720765  2.83328638735  -1.05928882  0.23897518  0.17171546
Ge  2.86457221225  2.99064044385  8.75981130065  0.79203392  -0.43752518  0.86710158
Ge  2.69105496905  8.5969192138  2.953307876  1.47258913  0.2235573  0.02192574
Ge  3.0385866064  8.63339621955  8.637408112100001  -0.41663562  0.5928699  0.17403853
Ge  8.636090084  2.8572999344  2.8980085040500003  0.0535242  -0.14585511  -0.09525217
Ge  8.634471453  3.02301306385  8.6926034292  0.38050874  -0.06824724  0.31845887
Ge  8.77946610565  8.7502498161  2.8467557096  -0.93459589  -0.70763127  -0.33138978
Ge  8.7511978714  8.56139026335  8.84573748345  0.10386881  0.14451976  -0.89523916
Ge  1.6190472193999998  4.3806629384  1.2861295076500001  0.32096805  0.27485243  -0.0215485
Ge  1.46468763025  4.2078625175  7.26794223125  -0.59502746  1.15636489  -0.2291013
Ge  1.2282865727  10.03924661295  1.6640914078  0.63959517  0.3002135  -1.08767926
Ge  1.40951543645  10.12175054735  7.203243237850001  1.13698233  0.49105316  0.13860941
Ge  7.1468801940999995  4.385796311  1.477347637  0.70219682  -0.11410079  0.48726373
Ge  7.357198169250001  4.42118652165  7.107431844300001  -0.07286928  0.47940931  -0.02006821
Ge  7.2095212138  10.09499688925  1.3831433128000001  0.54733713  0.22003364  0.47453831
Ge  7.269734287  10.05177944155  7.403502577499999  -0.05697603  -0.2237107  0.02002314
Ge  11.4797010248  0.05462879625  2.9924324996  0.42650892  0.00257612  0.30023884
Ge  11.48038316215  0.0644215138  8.5008881489  0.27175898  -0.2569295  0.86261505
Ge  0.06228260855000001  5.71019488015  2.77409073935  -0.26400914  -0.28598665  0.11193281
Ge  11.45776857475  5.71909735065  8.7197039368  0.5770616  -0.05150464  -0.56058691
Ge  5.658502743000001  11.448010542150001  2.78019529055  0.38967945  0.40321743  0.09304633
Ge  5.8216376245  0.10714181055  8.6689020467  -0.14690448  -0.34571285  0.2865189
Ge  5.709362441350001  5.8616756184500005  2.8269621648000003  0.01880018  0.17974771  0.42709251
Ge  5.7920398005000004  5.779645711700001  8.60870053515  -0.21863087  -0.62826199  0.11458499
Ge  1.5063442552  1.44204991955  4.3486602912  -0.01434425  0.20663426  -0.04630197
Ge  1.3620086166  1.4418071249  10.07881057925  0.41914285  -0.5265802  -0.02580914
Ge  1.4142903979  7.107767132149999  4.35660314475  -0.4221574  -0.09825499  0.02395697
Ge  1.3661823722500002  7.31548373605  9.9301393219  0.36140346  -0.18656565  0.27207221
Ge  7.1443828777  1.30374946225  4.2564214475  0.20559911  0.13886994  0.61729813
Ge  7.23494528215  1.52416075785  10.12332293175  0.26664455  -0.06536825  0.38237303
Ge  7.212839407350001  7.313541378850001  4.3246004975500005  -0.15394096  0.3765333  -0.86401009
Ge  7.17075500135  7.14871849645  10.11638594175  -0.05720036  0.47128889  -0.29691065
Ge  0.03804939015  2.9238025452  0.012185979100000001  0.09489453  -0.42877999  0.45706639
Ge  0.0166718993  2.8451602019  5.8081798638999995  0.28713007  -0.40748065  0.11304257
Ge  0.02614089065  8.66343338625  11.5257626384  -0.10226817  -0.11831909  0.17912031
Ge  0.084631278  8.6921872098  5.75230240945  -0.16016427  -0.37417754  -0.18502549
Ge  5.79108018355  2.9196403511999995  0.10858701679999999  -0.60294049  -0.05984626  -0.93170549
Ge  5.855651998800001  2.9358266611999997  5.832702123550001  0.08337517  -0.08241076  -1.01110559
Ge  5.829060203799999  8.624065968  0.013931788249999999  -0.31140781  -0.15643092  -0.1042779
Ge  5.8034395874  8.60659631485  5.9225014591  0.29568529  0.89689568  -0.77802017
63
Lattice="11.56165 0.0 0.0 0.0 11.56165 0.0 0.0 0.0 11.56165" Properties=species:S:1:pos:R:3:forces:R:3 energy=-278.00203539 stress="-0.29608603 -0.01885845 -2.3449359 -1.09642728 -0.78631278 3.88329302 -0.01885845 -2.3449359 -0.78631278" pbc="T T T"
Ge  4.32691282755  4.19728360775  4.20970081985  0.03118755  -0.41924415  0.25398613
Ge  4.42564931855  4.4323666372  10.12727701605  -0.79819569  0.04308691  0.18682389
Ge  4.28584584675  10.1156113112  4.36293892895  0.27096292  -0.53579244  0.38068467
Ge  4.20704164035  10.08681124105  9.933295652350001  0.54818744  0.07539738  0.50389436
Ge  10.3159747057  4.32402241505  4.2546640767  -0.2275801  -0.00707448  -0.26801822
Ge  9.991878532900001  4.4529001275999995  10.276838520450001  0.53665556  -0.79695069  -0.96426477
Ge  9.99249130035  10.02534950965  4.410619173550001  0.20329221  0.7150596  -0.15192613
Ge  10.1625516102  10.0938060393  10.087400885200001  0.14901982  0.41398488  -0.56140736
Ge  2.9632393333500002  11.35910145365  0.0673812962  -0.2543047  0.55845506  0.60603714
Ge  2.9688698569  0.1145065816  5.7931265955999995  -0.70052311  -0.33980233  -0.09263099
Ge  3.03274797315  5.6227541212  5.766546362250001  -0.45707567  0.09198715  0.27397654
Ge  8.70262737975  11.47504167985  11.54459656625  0.11184165  0.13892819  0.42846214
Ge  8.6685551972  11.4179386905  6.020370826350001  0.45466782  0.80848549  -0.42088099
Ge  8.5502563944  5.819348417800001  0.16074161995  0.23334401  -8.336e-5  -0.01271791
Ge  8.73180898435  5.74980509305  5.6100363062  -0.35475609  -0.48451434  0.25734205
Ge  4.4707975617999995  1.3918839202  1.4095501214  -0.09831618  -0.09184807  -0.28484383
Ge  4.3563372268  1.52191779775  7.321576725600001  0.59798601  -0.5886388  -0.52904594
Ge  4.26669975435  7.4196888875  1.3844382176  0.2706008  -0.84599204  0.08210234
Ge  4.2393102055  7.25638058125  7.19836422155  0.2841199  0.00322436  -0.11219599
Ge  10.248050011950001  1.4256670615  1.3484930477500001  -1.15618455  0.11457185  0.40715299
Ge  10.076833537099999  1.5915767390000002  7.28137686855  0.17487488  -0.33320777  0.11847121
Ge  10.0195339997  7.3698119294  1.3730384307  1.23940354  -0.24216298  0.05480232
Ge  10.0219850695  7.2322167327499995  7.0739724291999995  0.00793969  -0.21825455  1.12077325
Ge  2.8546176316  2.81136549895  2.6453748899000002  -0.25988244  0.72315619  -0.02022147
Ge  3.0161223204500005  2.83192211265  8.830221749149999  -0.28267618  0.24050019  0.68382321
Ge  2.8193083525000002  8.6762783794  2.9185188711500003  -0.4549455  0.20307625  0.0513447
Ge  2.7795015915500003  8.67379262465  8.6270026271  -0.75702422  -0.33232056  -0.58446109
Ge  8.741335783950001  2.82107728495  2.91629903435  -0.1889028  -0.07873813  0.18162813
Ge  8.5131897445  2.9496312713000004  8.727195886  0.55832229  0.19867297  0.29230388
Ge  8.6301473959  8.7353352876  2.8414604739000002  0.05993265  -0.46508195  0.22146522
Ge  8.648680720849999  8.6029775184  8.7411392359  0.07698893  0.16581228  -0.49812335
Ge  1.6305048145500003  4.55553289465  0.99822129935  0.6409802  0.14865576  0.61677565
Ge  1.6719186448499999  4.3134550669500005  7.432187031150001  -1.16095894  0.19525921  -0.57385721
Ge  1.22799753145  10.1630603228  1.55052131985  0.97729705  -0.23833439  0.09096177
Ge  1.3258553370500001  10.16279440485  7.0993849359  0.19372645  0.44931659  0.45821926
Ge  7.16781834225  4.3910915467  1.5808244045  0.20672658  -0.69918435  0.18626497
Ge  7.1519210735  4.4214986862  7.25342079885  0.24880427  0.22579793  -0.31499616
Ge  7.192664328099999  10.0432585055  1.446131182  -0.53401686  0.78739007  -0.48615435
Ge  7.1170511371  10.0505192217  7.2598837612  0.51867605  -1.2808979  -0.03386158
Ge  11.39996032475  0.0631959789  3.0169200743  0.19647801  -0.33405648  0.05829801
Ge  0.0797985083  0.20368158805  8.740399290300001  -0.69026771  -1.07400458  -0.6870192
Ge  0.13043853530000002  5.831858123100001  2.6534449216000002  -0.33694164  -0.08596111  0.23906372
Ge  11.529127078550001  5.8280659019000005  8.6872619469  -0.17270226  -0.23542422  -0.08526978
Ge  5.7547187943  11.4456404039  2.9605685922000005  0.73673766  0.78700451  -0.02300672
Ge  5.76888181555  11.447617446050002  8.6179614168  -0.36321551  1.40154457  0.76057754
Ge  5.6774754106500005  5.8162614572499995  2.94319143225  -0.4274977  0.33206955  -0.8860725
Ge  5.7082409613000005  5.95083906325  8.69599099265  0.26150063  -0.39635234  -0.31408497
Ge  1.43379490145  1.48952205445  4.27208748325  0.18845337  0.00490525  0.49157712
Ge  1.5723844000000002  1.3469091017  10.2747921084  0.09334695  0.61210933  -0.0835488
Ge  1.5248660185  7.06716261735  4.3798767462  -0.41155495  0.35784622  -0.36985706
Ge  1.5131193821  7.12219607135  10.163823391700001  0.31693665  -0.14451635  0.2524827
Ge  7.249131426700001  1.3587019847  4.59907406855  0.467142  -0.40467945  -1.47713428
Ge  7.219845767250001  1.3782180499  10.1896752411  -0.26301096  -0.05015471  -0.57594555
Ge  7.2596062816  7.20146274375  4.1989138004  0.06715001  0.0038742  0.54261439
Ge  7.20365945725  7.1872072293  10.2104168412  0.12042234  0.19840501  -0.47570222
Ge  0.08473533285  2.9237794219  11.557106271550001  -0.23236286  0.2420391  -0.43839505
Ge  0.11352384135  2.9546259041000003  5.86505162025  0.16468246  0.08418322  -0.04094785
Ge  0.11870346055  8.709622178  11.4737583367  -0.69305788  -0.40113404  0.30602852
Ge  11.48766700165  8.584212960450001  5.7086571806999995  0.92752038  0.04972655  -0.09615628
Ge  5.82611198305  3.0302390951  11.51358822095  0.15857839  -0.73064919  0.63531351
Ge  5.82167230945  2.87689693115  5.81952184255  -0.58697424  0.55305365  0.12269222
Ge  5.71713187015  8.7251610356  11.37584272285  -0.08036997  0.0993532  0.69054898
Ge  5.8115327424  8.51121270235  5.732427933099999  -0.35118843  0.82812307  -0.09374493
63
Lattice="11.56165 0.0 0.0 0.0 11.56165 0.0 0.0 0.0 11.56165" Properties=species:S:1:pos:R:3:forces:R:3 energy=-278.50328606 stress="-1.08307691 -2.24619644 -1.13136356 1.13656099 0.24874955 -0.41466376 -2.24619644 -1.13136356 0.24874955" pbc="T T T"
Ge  4.27102381145  4.393889466  4.32508608685  0.25963977  0.06292493  0.3258018
Ge  4.0922228942  4.4174521087  10.17905008475  0.42462811  -0.1828297  0.4338077
Ge  4.3255601145  10.0409692988  4.1637432611000005  -0.38584425  0.07024685  0.53473615
Ge  4.40634136305  10.1199353683  10.21121459505  -0.10948603  -0.06535206  -0.01885174
Ge  10.07802438705  4.16870320895  4.3898197652  0.27733001  1.01475313  0.44306654
Ge  10.198647081499999  4.6119190617  10.1220627119  -0.29564972  -1.07244778  0.33440736
Ge  10.0671448744  10.12038627265  4.29583511235  0.16953967  -0.02013914  0.17446204
Ge  10.18860000765  10.0836317873  10.1399138995  -0.28543384  -0.21342389  -0.06961696
Ge  2.9082752492500004  0.1352481817  0.01848707835  0.49358456  -0.50011306  0.35863775
Ge  2.9534697391000004  0.08398382559999999  5.626673520550001  0.00787308  -0.83970366  0.46718085
Ge  2.7252890147  5.7275720401  5.8144925248  0.5024693  0.74671607  -0.86726444
Ge  8.69351679955  11.5607713146  11.55685191525  0.11424679  -0.38658376  0.15433259
Ge  8.5914389917  11.45046161195  5.8547733134  0.38102285  0.45385079  -0.85105984
Ge  8.6924184428  5.866820552699999  0.11671485675  -0.09363261  -0.37297181  -0.72302473
Ge  8.6269795038  5.849362461200001  5.7672978695  0.47686861  -0.27267663  0.42252942
Ge  4.45642643085  1.57896297885  1.5417922741  -0.29722052  -0.75256336  -0.20660633
Ge  4.3649622177  1.5111307783  7.1252830319000005  0.13550617  0.10000519  0.01941774
Ge  4.3664767938499995  7.090262794050001  1.2390389072  -0.41867531  0.26982596  -0.6459066
Ge  4.31206766895  7.118161055500001  7.2551203613999995  -0.21619009  -0.29371806  0.06915731
Ge  10.10829278675  1.46441015065  1.4380611503  -0.27583542  -0.03665493  0.02122816
Ge  9.9902599019  1.27142308885  7.3168364491  0.40150828  0.17176115  0.48417645
Ge  10.136561021  7.126416073600001  1.58037350015  -0.01570794  0.73630432  0.18116583
Ge  10.14873543845  7.402323289200001  7.23300292495  -0.51777881  0.0521982  -1.07940248
Ge  2.87594887585  2.8851403876  2.95748163165  -0.31420499  -0.09726968  -0.11696001
Ge  2.8097353063  2.92751383485  8.495650721450001  -0.00831791  0.20922953  0.58032483
Ge  2.9224151472  8.504056041  2.73152074405  -0.20270904  0.23246006  -0.00255416
Ge  2.9917272389500003  8.65596456035  8.67820917495  -0.04836217  -0.12140615  0.79334064
Ge  8.68618671345  2.8480274911  2.9536547255  -0.14002224  -0.17753972  -0.58074477
Ge  8.8056301196  2.9983289411  8.6901754827  -0.21365347  -0.24386243  0.58234433
Ge  8.5774262719  8.62481747525  2.9440816793  0.40928943  -0.11120191  0.07001469
Ge  8.6018444767  8.83093857145  8.54624450185  0.63387882  0.05246155  0.45537129
Ge  1.5173740693  4.27740584225  1.3446198950000001  0.39652427  0.42751532  0.20945212
Ge  1.2500687213  4.3009569233  7.0779380751500005  -0.08806097  0.10802221  1.15844574
Ge  1.4678555223499998  10.04218327205  1.3566902576000002  0.15157976  0.51584105  0.2426484
Ge  1.6016353744999998  10.1434517644  7.279977908899999  -0.35344167  0.18669807  -0.8566568
Ge  7.309078581950001  4.3332601734  1.50070217  -0.55167626  0.23630071  0.15340479
Ge  7.2568892938500005  4.37706726525  7.35433088005  0.53557373  -0.285457  -1.0809838
Ge  7.2409689018  10.11966945035  1.5075466668000002  0.28670755  0.16960825  -0.32410095
Ge  7.039761506850001  10.23503159405  7.210966420049999  -0.54486592  -1.04496466  -0.04024531
Ge  11.5359137671  11.54473530605  2.79184943375  0.06069109  -0.55442345  0.0539248
Ge  0.0864580187  11.540006591200001  8.7275658588  -0.0599992  -0.0657375  0.01712975
Ge  0.0464547097  5.6327087018499995  2.87724378065  -0.41418612  -0.65648864  -0.05825791
Ge  11.5414402358  5.97160378665  8.602098833  1.05706554  -0.45452709  0.30694127
Ge  5.83936163395  11.548851253450001  2.95752787825  -0.00415862  0.48540417  -0.1633552
Ge  5.705443042  0.0859261828  8.711529850249999  -0.07099662  0.18008335  0.13096742
Ge  5.690621006700001  5.85693534195  2.83344825045  0.61862748  -0.64764912  0.43646568
Ge  5.7695408296  5.65356591845  8.71793500435  -0.4859225  0.86428355  0.72418201
Ge  1.2930318127  1.35739551825  4.34975864795  0.29858519  0.56643177  -0.14740879
Ge  1.4698556878  1.5294906785  10.13479208855  -0.26203028  0.18085476  -0.32468521
Ge  1.31101017845  7.2080066376500005  4.19529500395  1.13177646  -0.01478047  0.65307283
Ge  1.6355803789  7.09532679675  10.2436450233  0.06369478  -0.10736602  -0.28432559
Ge  7.272971548999999  1.49627405805  4.45251859315  -0.24510208  -0.56030545  -0.21824544
Ge  7.31976154655  1.4399572609  10.087077159  -0.02558517  0.35408166  -0.33999915
Ge  7.08344142055  7.2943143549  4.44706149435  0.56795155  -0.60551738  -0.83392122
Ge  7.4245100955500005  7.20134712725  9.97260526235  -0.88252219  -0.1275455  0.40145895
Ge  11.5027318316  2.9487641475500004  0.025770917850000002  0.15999418  0.15590945  -0.74293016
Ge  11.40671232835  2.69422286115  5.909748959150001  0.06420462  0.12813472  -0.85096687
Ge  0.01716905025  8.5179531443  0.06473367835  -0.07620672  0.06266006  -0.43473121
Ge  0.09645884595  8.7358440002  5.69590468075  -0.2691808  0.36234856  0.53238611
Ge  5.9301668330499995  2.88263150955  0.01795524245  -0.82812657  0.61621321  -0.34953081
Ge  5.86470477075  3.0257069283  5.78421256345  -0.50305428  0.02661278  0.09967109
Ge  5.9966116356  8.593751321700001  11.54383349735  -0.67492219  0.09670103  -0.31641944
Ge  5.58516719705  8.60032990055  5.7641068541000005  0.09840088  0.98877763  0.5031015
63
Lattice="11.56165 0.0 0.0 0.0 11.56165 0.0 0.0 0.0 11.56165" Properties=species:S:1:pos:R:3:forces:R:3 energy=-278.43887518 stress="0.22166457 -1.74165796 -0.85749415 2.74767916 -0.60284995 -0.21544252 -1.74165796 -0.85749415 -0.60284995" pbc="T T T"
Ge  4.3066915017  4.40340470395  4.4257302501  0.19561099  -0.72117739  -0.27476208
Ge  4.2439579888  4.473607042749999  10.2172382147  -0.21777819  0.10768222  -0.11030646
Ge  4.3101137501  10.10124018025  4.1585405186  -0.14851532  0.13734024  -0.03017601
Ge  4.350718264899999  10.22552791775  10.10873212945  0.75793308  -0.19081952  -0.4191694
Ge  10.0326217875  4.2377378211000005  4.2670581655  0.16060328  0.53962143  0.57757756
Ge  9.82544858115  4.3345550782  10.2010519047  0.96857689  0.15505575  0.36097676
Ge  10.08052170345  10.125230604  4.276816198100001  1.15490714  0.37166355  -0.24654977
Ge  10.2428819544  10.02736123675  9.994953931800001  -0.21704094  0.62727239  0.37303382
Ge  2.9211433657  0.07430672455000001  11.50447764075  -0.32336469  -0.23618407  0.22039957
Ge  2.9644764299000004  0.05455942635  5.6975117501  -0.30609274  -0.26285291  -0.07892174
Ge  3.0219609537  5.798629941  5.99780248555  -1.23392176  -0.72959596  -0.47739288
Ge  8.69735526735  11.38360059  11.47573537885  0.24297276  0.84027036  -0.43917104
Ge  8.6652485653  11.4831001499  5.6850251681  -0.01385089  0.44582116  0.89828263
Ge  8.59050249805  5.790837388900001  0.24974320165  0.63052033  1.21261929  -0.89461077
Ge  8.6206899662  5.8531315590999995  5.73234700155  0.31814243  0.03238526  -0.0324159
Ge  4.32224192095  1.4972914832500002  1.3674772770499999  0.30858895  0.00978142  0.74098459
Ge  4.442182478049999  1.4702950305  7.150429620650001  -0.80065656  -0.05714372  0.23694705
Ge  4.2407900967000005  6.8984665822  1.2864185489  0.02010122  0.49729591  -0.4536081
Ge  4.38266310385  7.192964931000001  7.31566872245  0.83654679  0.88984564  0.43964135
Ge  10.08618691195  1.37691158345  1.3669454411500002  0.20847668  -0.06117926  -0.37794728
Ge  10.0680004365  1.4782263224  7.19327709555  0.41192217  -1.08635515  0.01982355
Ge  10.16711846195  7.33888451565  1.612387709  -0.12698204  -0.75007356  -0.04354427
Ge  10.1316357581  7.246495370500001  7.285828103799999  -0.01276279  -0.37715787  -0.47208506
Ge  2.8529065074  2.88001857665  2.9149694446  0.50284822  0.1953664  0.03723959
Ge  2.89139524025  2.8885163894  8.63640224855  0.56699145  0.15906385  0.35251429
Ge  2.86293045795  8.47185684575  2.76428646015  0.15193649  0.29971182  -0.04277661
Ge  2.9872875653500004  8.705471545650001  8.6953319786  -0.60824577  -0.35388428  0.23094719
Ge  8.68114583405  2.75633204495  2.8465707232  -0.68850446  0.26319137  -0.14809885
Ge  8.703841353000001  2.8640750613  8.62109462395  -0.69158062  0.32380361  0.10491635
Ge  8.6074865619  8.7309649839  3.0026529982  -0.00753135  -0.2015169  -0.89730236
Ge  8.71650135975  8.6638842906  8.6930890185  -0.4924924  0.01373264  -0.49508925
Ge  1.4604213814000002  4.33262428265  1.4953260027500002  -0.26467765  0.68519154  -0.04906672
Ge  1.40304091245  4.384663269300001  7.379038126099999  -0.4544113  0.00213567  -0.41132432
Ge  1.4886202457500002  10.01122117335  1.2156843742  0.0616778  -0.29757596  0.44051757
Ge  1.5441046041000002  10.17303802675  7.269838341850001  -0.52669959  0.26470644  -0.37512207
Ge  7.1661650263  4.3253982514  1.4246496363  -0.38311659  -0.63788214  1.54665413
Ge  7.2800010322  4.39239801315  7.2524611819  -0.2302066  -0.21337176  -0.20788356
Ge  7.272196918450001  10.07275227465  1.39293603035  -0.32526532  0.04367696  0.37756294
Ge  7.2233951938  10.0457789452  7.15227948465  0.31011744  0.24328973  0.38053821
Ge  0.0416450633  11.4535485725  2.6296279226  -0.08781502  0.149728  0.97219283
Ge  0.0782492472  0.1175126106  8.7551057091  -0.08539583  -0.30613918  -0.7539353
Ge  0.05624742725  5.809093234250001  3.0800004367000002  0.03181858  -0.21583528  -0.61504428
Ge  11.3983763787  5.74298371955  8.8907469869  0.37107003  0.02951457  -0.76103023
Ge  5.8461020759  0.0293434677  2.7907742003  -0.61419244  -0.37977773  -0.27167215
Ge  5.8545189571  0.0532529599  8.5416082802  -0.03836103  -0.32945376  0.72609584
Ge  5.74529604955  5.81852754065  2.9777492041  0.35486947  0.04306777  -0.25109555
Ge  5.8579874521  5.81424973015  8.76633207125  -0.2355231  -0.31269792  0.03082796
Ge  1.36872593525  1.3993527461000002  4.2513805681  -0.41827878  -0.06878136  0.44362964
Ge  1.4715205654  1.5748585931  10.1918488313  -0.14200452  0.00110567  -0.25640992
Ge  1.57191037235  7.17531029145  4.51927556025  -0.6254784  0.6799906  -0.10840636
Ge  1.58287081655  7.007146092200001  10.09936719295  0.25551085  0.32041283  0.54454494
Ge  7.19045605295  1.3440186892000001  4.349064948950001  0.15982686  0.77850195  -0.12895264
Ge  7.2615023922  1.4861922992499998  10.06287862555  -0.1461666  -0.62408057  0.2782702
Ge  7.130532021  7.4627444721  4.4322047741  0.13010074  -1.46943619  -0.25596158
Ge  7.260114994199999  7.2998523852499995  10.157661032250001  0.46670614  -0.50367737  0.20810747
Ge  11.52253693805  3.01108144105  11.5462730055  -0.248009  -0.14337433  0.26906752
Ge  11.49305473055  2.92716698535  5.8489924884  0.73760406  0.13081897  -0.72580283
Ge  11.5477066501  8.500367874650001  11.4369229198  0.61456293  -0.03440527  0.12098867
Ge  11.492430401450001  8.75877075215  5.81774134845  0.931082  -0.32767168  0.19204463
Ge  5.7617251542000005  2.9441972958  11.5244908569  -0.11568573  -0.04031713  -0.43650403
Ge  5.8239152695500005  2.9033153014  5.800086708899999  0.29395423  0.58423558  -0.38314164
Ge  5.79822528325  8.67818605165  11.5106631235  -0.99158961  -0.1682507  0.58931099
Ge  5.63180689315  8.753926420800001  5.78751919535  -0.33338238  0.02276832  0.21164316
63
Lattice="11.56165 0.0 0.0 0.0 11.56165 0.0 0.0 0.0 11.56165" Properties=species:S:1:pos:R:3:forces:R:3 energy=-278.47043377 stress="-1.2661359 -1.51725955 -2.59907374 -0.52344435 -3.79989841 -0.94464763 -1.51725955 -2.59907374 -3.79989841" pbc="T T T"
Ge  4.4322278974  4.33664773685  4.2765734034500005  0.10902636  -0.19514235  0.22105415
Ge  4.3484290582  4.383969570300001  10.35053247755  -0.81831165  -0.23616644  -0.22504988
Ge  4.2820883105  9.95369040295  4.2470102644  -0.41728549  0.53192203  0.47955377
Ge  4.41043418715  10.21664857055  10.1298783873  0.23652812  -0.73851485  0.2211973
Ge  10.02951170365  4.4360894884999995  4.4329447197  -0.72199845  -0.05384046  -0.15676179
Ge  10.02338402915  4.40400590975  10.1781367144  0.32339661  -0.20306373  -0.63574323
Ge  10.2220941077  10.142931490150001  4.39406289075  -0.54851266  0.1807123  -0.23605247
Ge  10.2087519636  10.11351865255  10.0394894076  -0.04161723  0.12620834  0.11738414
Ge  2.84482491405  11.411672276200001  0.0525130143  0.00518039  0.96185948  -0.38590081
Ge  2.7910285566  11.550423637849999  5.6971649006  0.53956757  -0.20322338  -0.05785237
Ge  3.00867661785  5.7621644969  5.7791138758  -0.84238141  -0.27178633  0.12555617
Ge  8.798392526699999  11.36966880175  0.10263276704999999  -0.13986577  0.70527148  -0.49242181
Ge  8.7685634697  0.04235032395  5.8831687258  -0.07694002  -0.0331407  -0.37309805
Ge  8.6219155011  5.8659881139  11.5024312287  0.1375781  -0.0538235  1.47378917
Ge  8.4451609959  5.7646155667  6.013676631000001  0.49847947  -0.09865403  -0.57505277
Ge  4.2861926962500005  1.3004775153  1.5098358735000001  -0.2341574  0.5279754  -0.23840991
Ge  4.39551965865  1.47014472905  7.0607227783  -0.58459521  -0.01798158  0.30924665
Ge  4.25576243345  7.1903288748000005  1.2331655890000002  0.43769156  -0.88682043  -0.29609428
Ge  4.2056889273  7.27369993295  7.331843470800001  0.56710061  -0.30916273  -0.20874347
Ge  10.1917794614  1.5540823080500001  1.26837081325  -0.36193173  -0.15216174  0.48125589
Ge  10.1971903136  1.59397000055  7.268578122  -0.53174597  -0.34864253  0.06654314
Ge  10.15733730605  7.37588179565  1.4947363586000002  -0.97470428  -1.28726108  -0.22898372
Ge  10.1692111206  7.187519393850001  7.16925198685  -0.50456016  0.15559984  0.68559372
Ge  2.8811400567  2.893649762  2.9004480122  -0.06853726  -0.07295289  -0.1665673
Ge  2.87920926115  2.9852064683500004  8.657097602050001  0.80459906  0.1499342  -0.22782707
Ge  2.8945053241000003  8.5229940237  2.71880292905  -0.61491742  0.56997117  0.42668737
Ge  2.910298538  8.67383887125  8.84009539825  -0.74162798  0.35351801  -0.02728937
Ge  8.74209885285  3.1275766264500002  2.66254394015  0.05103097  -0.36380852  0.35661815
Ge  8.6281356688  2.938277731  8.71985423825  0.01504586  -0.29937307  0.08153191
Ge  8.7271033928  8.65150176345  2.9833912893  -0.3036818  0.63343518  0.39117134
Ge  8.70477784665  8.7036332433  8.6808105462  0.3356327  -0.5518492  -0.28543739
Ge  1.4030640357500002  4.3173975896  1.41379324695  0.08961006  0.37572482  0.0368903
Ge  1.34065424905  4.3760382784  7.22396171465  0.6074319  0.05802288  -0.20837595
Ge  1.3339716153499999  10.0618033921  1.4142672746  0.46957236  -0.27540642  0.36148262
Ge  1.4323959418  10.07548082405  7.197890193899999  0.07063743  -0.19811445  0.28485254
Ge  7.00863754505  4.4112088176999995  1.3539501465500001  1.05895889  -0.28687548  -0.38384737
Ge  6.9669577968  4.2280029118  7.368806065850001  0.30360807  0.44815875  0.13237303
Ge  7.2713760413  10.15042343935  1.5968257280999998  -0.0231651  -0.22396284  0.23241382
Ge  7.2533976755500005  10.06835884765  7.24313093035  -0.40068423  0.23950712  -0.57462077
Ge  11.50662810765  0.01844083175  2.7606445404  -0.23530561  0.08709995  0.23321177
Ge  0.07628376669999999  0.076538123  8.63027457405  -0.00950961  -0.21734705  0.04210044
Ge  11.42590466735  5.7717491047500005  2.8762610404  0.98000539  0.02560835  0.02114128
Ge  0.0033297552000000003  5.799601119599999  8.7921492357  -0.0044607  0.23239878  -0.31926493
Ge  5.70274917755  11.513946632100001  2.9797609312000004  1.01193569  0.3594622  0.24102978
Ge  5.7673672394  0.01857957155  8.574108078350001  0.18994416  0.11791766  0.06429069
Ge  5.81818069115  5.87608143435  2.8610112240500003  -0.90473084  0.32537625  -0.05598558
Ge  5.63515977165  5.88271782145  8.860073929450001  0.44974353  -0.10577603  -0.28309655
Ge  1.29646562275  1.4148684804  4.2593234216499996  0.60325052  0.27246707  0.10952406
Ge  1.54402367255  1.4825041329000002  10.07201232905  0.19081354  -0.61962348  0.17708582
Ge  1.4949329066500001  7.15530863695  4.284053791  0.10350815  -0.34569427  -0.22918087
Ge  1.5733787019  7.06965993375  10.3393292387  0.15731606  -0.00979441  0.18072599
Ge  7.5160899252  1.51035614775  4.18061170845  -0.4062812  -0.74701502  -0.02404115
Ge  7.3753846446999995  1.2207483769  10.0873546386  -0.33451287  0.49181491  0.24855273
Ge  7.20044531855  7.2728096859  4.3976123173  0.25568327  -0.34426245  0.13006987
Ge  7.2522299489  7.33314993725  10.196057271899999  -0.2546698  0.07077915  -0.93913553
Ge  0.0630572391  2.9494231616  11.3748599826  0.04574403  0.05084978  0.39646026
Ge  11.5196812105  2.93373400255  5.69389295365  0.25699504  0.12635098  0.1572397
Ge  11.52050208765  8.6263089281  0.00472871485  0.6775909  0.12870931  -0.92783047
Ge  0.0410438575  8.5744202429  5.693418926  0.34595473  0.27125204  0.39174141
Ge  5.7605458659  2.70469771605  0.0031910154  0.17354287  -0.08365135  -0.19300808
Ge  5.9603543012  2.7678821333  5.625182067700001  -0.689865  0.52716958  0.05905269
Ge  5.88926171535  8.72494136425  0.11426378695  -0.71315359  0.35839199  -0.33604751
Ge  5.6675439533  8.6076253017  5.7978899954  0.4010065  0.3714238  0.35429877
63
Lattice="11.56165 0.0 0.0 0.0 11.56165 0.0 0.0 0.0 11.56165" Properties=species:S:1:pos:R:3:forces:R:3 energy=-278.65848489 stress="-1.38913851 -1.06730068 -1.45470946 0.93991016 -2.28735696 0.41408155 -1.06730068 -1.45470946 -2.28735696" pbc="T T T"
Ge  4.2316563932  4.55971821195  4.2159556725  0.1913533  -0.60995398  0.13581232
Ge  4.337237381  4.36733235595  10.33936392365  0.05612161  0.1904336  0.07800095
Ge  4.20794344905  9.921074988300001  4.21455671285  -0.06942552  0.3408723  0.1174407
Ge  4.37729849825  10.2293779472  10.00860824045  -0.29322612  -0.1780554  0.6165863
Ge  10.1928200099  4.27215685315  4.38240874755  0.03697584  -0.04580521  0.53112481
Ge  10.26229396475  4.4831222807  10.1050902097  -0.45856725  -0.20998881  0.02853598
Ge  10.045906123349999  10.1664363246  4.41431890155  0.19720559  -0.8295182  -0.46190643
Ge  10.0381020096  10.18480778645  10.0999568371  -0.22876704  0.11808329  -0.02612621
Ge  2.79580351805  0.03959865125  11.54783382825  0.49941689  -0.08885885  -0.5210006